VARIABLES = "X" "Y" "siX" "siY" "etaX" "etaY"
ZONE I=  65    J=   57
 -0.50000000000000000        0.0000000000000000        26.000001495000117        0.0000000000000000        0.0000000000000000        6250.0001542968794     
 -0.46153846380000002        0.0000000000000000        26.000001562600090       0.34760858407426642       -0.0000000000000000        6230.5714058375879     
 -0.42307692769999999        0.0000000000000000        26.000001562600094       0.56783881139895487       -0.0000000000000000        6210.6192069422650     
 -0.38461539150000001        0.0000000000000000        26.000001528800084       0.88485169010192921       -0.0000000000000000        6189.4617278253354     
 -0.34615385529999998        0.0000000000000000        25.999991490202774        1.1276660527806055       -0.0000000000000000        6166.5022793294784     
 -0.30769228939999999        0.0000000000000000        25.999991490202792        1.4036396236813184       -0.0000000000000000        6140.6870280967232     
 -0.26923075320000001        0.0000000000000000        26.000001528800095        1.7070204936387057       -0.0000000000000000        6111.0172530156242     
 -0.23076921700000000        0.0000000000000000        26.000001528800084        2.0667220979906644       -0.0000000000000000        6075.7009425979440     
 -0.19230768079999999        0.0000000000000000        26.000001562600090        2.4340616258817813       -0.0000000000000000        6032.1880716369096     
 -0.15384614469999999        0.0000000000000000        25.999999061400036        2.8698776825528896       -0.0000000000000000        5976.2053314930772     
 -0.11538460110000000        0.0000000000000000        25.999996506120471        3.3590341628628799       -0.0000000000000000        5900.0207337348629     
  -7.6923057439999998E-002   0.0000000000000000        25.999999017460041        4.0039545082310273       -0.0000000000000000        5786.4779052148206     
  -3.8461521270000000E-002   0.0000000000000000        26.000000289539400        4.9053212990707591       -0.0000000000000000        5585.3005296591327     
   1.8626451489999999E-008   0.0000000000000000        30.339962337199495        7.4661863185322712       -355.14483130484541        4955.7956768291269     
   2.6315789669999999E-002   4.6421056610000001E-003   36.772351312266231        6.9595313032627084       -959.32666830177197        5438.3574468806728     
   5.2631579339999998E-002   9.2842113230000006E-003   36.948731035609022        5.9595879980644559       -1000.9135166174362        5674.1126301205786     
   7.8947365280000001E-002   1.3926316050000000E-002   37.072400905714176        5.2584961657636029       -1028.9959286812170        5833.3097959546676     
  0.10526315870000000        1.8568422649999999E-002   37.165364172529642        4.7314636962909740       -1051.1533530974923        5958.9196107500493     
  0.13157895210000001        2.3210527379999998E-002   37.248592624260155        4.2597077643314636       -1070.5956958129450        6069.1364819778146     
  0.15789473060000001        2.7852632110000001E-002   37.316121732912343        3.8768889186671780       -1088.0653913498747        6168.1697995573568     
  0.18421052399999999        3.2494738699999998E-002   37.377243261382212        3.5303343760410497       -1104.7571471293109        6262.7947629759947     
  0.21052631740000000        3.7136845289999998E-002   37.433710769652848        3.2102251149470580       -1121.1448425937506        6355.6980648242843     
  0.23684211080000001        4.1778948160000003E-002   37.489544340203011        2.8937085953153758       -1137.4847245466165        6448.3277933176705     
  0.26315790410000001        4.6421054750000003E-002   37.543684299574771        2.5868528983401817       -1154.5468777239680        6545.0501901316275     
  0.28947368260000000        5.1063157620000001E-002   37.593052696130734        2.3070466378288530       -1172.4417706397383        6646.4932901897628     
  0.31578946110000000        5.5705264210000001E-002   37.635641028789045        2.0654946248926507       -1191.5897658534295        6755.0431011867904     
  0.34210526940000002        6.0347370800000001E-002   37.680527130594172        1.8110382982682718       -1213.3111312023673        6878.1800687284358     
  0.36842104790000002        6.4989477399999995E-002   37.732133933459195        1.5184827667575567       -1238.3649176455531        7020.2083169889784     
  0.39473685619999999        6.9631583989999996E-002   37.765887130897930        1.3271381378539280       -1268.1982143380010        7189.3312985662669     
  0.42105263469999998        7.4273690579999996E-002   37.821635587047943        1.0112260585438095       -1307.1257594470717        7410.0107123010475     
  0.44736841319999998        7.8915789720000004E-002   37.879656624536736       0.68218699465174015       -1362.2912353945010        7722.7445632355048     
  0.47368422150000000        8.3557896320000005E-002   37.924058616271708       0.43047451061458586       -1457.6618023169653        8263.3877641159397     
  0.50000000000000000        8.8200002910000005E-002   37.999994330400831       -5.9068107714844650E-003  -0.0000000000000000        10432.376630497198     
  0.52631580830000002        8.3557896320000005E-002   37.933964797922982      -0.37443908498768425        1458.0863610376534        8265.7965119454311     
  0.55263155700000000        7.8915797169999996E-002   37.868920408502447      -0.74317148764954954        1361.8658201725730        7720.3285394625955     
  0.57894736530000002        7.4273690579999996E-002   37.825285778432857      -0.99028895267514405        1307.1815062578835        7410.3232361438977     
  0.60526317360000004        6.9631576540000004E-002   37.775923446847720       -1.2703641817494193        1268.4668781741389        7190.8502645168946     
  0.63157892230000001        6.4989477399999995E-002   37.733568755147857       -1.5104711854453872        1238.3131782653772        7019.9166682539872     
  0.65789473060000003        6.0347370800000001E-002   37.688000670722651       -1.7685503275244261        1213.5517788290831        6879.5481793089230     
  0.68421053890000005        5.5705264210000001E-002   37.614265005306770       -2.1867963669189114        1191.0027958838557        6751.7172024925057     
  0.71052628760000003        5.1063165069999999E-002   37.566124703373816       -2.4596996118690679        1171.6605135399732        6642.0643964045566     
  0.73684209590000005        4.6421054750000003E-002   37.529460489648898       -2.6673039090918764        1154.0819130329567        6542.4146425222689     
  0.76315790409999995        4.1778948160000003E-002   37.485985431686402       -2.9137611601641589        1137.4746403871816        6448.2691035418129     
  0.78947371239999997        3.7136837839999999E-002   37.414996994988243       -3.3164323937439395        1120.5574319473412        6352.3644749081386     
  0.81578946109999995        3.2494738699999998E-002   37.386782156322262       -3.4763818070780896        1105.0774277264372        6264.6118923085696     
  0.84210526939999997        2.7852632110000001E-002   37.328197481897554       -3.8082502925581618        1088.4117940041381        6170.1350582667537     
  0.86842107769999999        2.3210521790000001E-002   37.267329080713196       -4.1535526683705601        1071.1463052670663        6072.2573481664704     
  0.89473682639999996        1.8568424510000001E-002   37.184098298795000       -4.6253833764532439        1051.7720379829289        5962.4271066729589     
  0.92105263469999998        1.3926316050000000E-002   37.092842075422560       -5.1424641347536779        1029.5727044932871        5836.5795326243133     
  0.94736844300000000        9.2842066659999996E-003   36.954758692788978       -5.9254937632092064        1001.0519643819306        5674.8974674162009     
  0.97368419169999998        4.6421089210000000E-003   36.773405058386849       -6.9535758851476093        959.35618723395328        5438.5271319537078     
   1.0000000000000000        0.0000000000000000        30.341645648227534       -7.4422775412504212        355.16395060183163        4956.0638402783370     
   1.0384615660000001        0.0000000000000000        25.999981384013363       -4.7952636144270144       -0.0000000000000000        5585.3350290663675     
   1.0769231319999999        0.0000000000000000        26.000021606017942       -3.9546140462238926       -0.0000000000000000        5786.4759598342016     
   1.1153845790000001        0.0000000000000000        26.000021606017942       -3.3464309474076477       -0.0000000000000000        5900.0126351425597     
   1.1538461449999999        0.0000000000000000        25.999981384013363       -2.9172033321302102       -0.0000000000000000        5976.2022153583202     
   1.1923077110000000        0.0000000000000000        25.999981384013292       -2.2901286160539249       -0.0000000000000000        6032.1827772904353     
   1.2307692770000001        0.0000000000000000        26.000021944018538       -2.0902336139677393       -0.0000000000000000        6075.6901969102300     
   1.2692307229999999        0.0000000000000000        26.000021944018535       -1.7330523181392767       -0.0000000000000000        6111.0063839089562     
   1.3076922890000000        0.0000000000000000        25.999981384013292       -1.4847353742247482       -0.0000000000000000        6140.6793469791573     
   1.3461538550000001        0.0000000000000000        25.999981384013363      -0.96525928395507576       -0.0000000000000000        6166.4950848659055     
   1.3846154209999999        0.0000000000000000        25.999981384013363       -1.0358792050268839       -0.0000000000000000        6189.4572647792020     
   1.4230769870000000        0.0000000000000000        26.000021606017938      -0.30809693207369843       -0.0000000000000000        6210.6248191429177     
   1.4615384339999999        0.0000000000000000        26.000021606017942      -0.39583479666671118       -0.0000000000000000        6230.5719687279288     
   1.5000000000000000        0.0000000000000000        25.999941162133084        0.0000000000000000       -0.0000000000000000        6250.0001542968785     
 -0.50000000000000000        1.5999999600000000E-004   26.001683897651088       -0.0000000000000000       -7.9724650698970792E-002   6250.0001582031282     
 -0.46154057980000002        1.6049893749999999E-004   26.001175696607415       0.33796889042235562       -8.2183943036601176E-002   6230.5692079305882     
 -0.42308041450000000        1.6101459910000001E-004   26.001132124309322       0.55825485263357466       -8.6075185846953020E-002   6210.6128652627212     
 -0.38462087509999998        1.6156499619999999E-004   26.001187154398409       0.88009559167898144       -9.2695395895277866E-002   6189.4541271990292     
 -0.34616088870000000        1.6216657240000000E-004   26.001090827228136        1.1276964852607640      -0.10288086139569957        6166.4911779822114     
 -0.30770108099999999        1.6284831509999999E-004   26.001223797651249        1.4037206127407689      -0.11754603595513684        6140.6740983563550     
 -0.26924151180000000        1.6363897880000000E-004   26.001413406028160        1.7118620209943565      -0.13838203467461990        6111.0005315144153     
 -0.23078230020000001        1.6459012110000000E-004   26.001555922745975        2.0668599904916936      -0.16890533238509620        6075.6832158425505     
 -0.19232320789999999        1.6577732459999999E-004   26.001738135527958        2.4365455410799290      -0.21487820545860919        6032.1679360394101     
 -0.15386462209999999        1.6733008670000000E-004   26.002013675165642        2.8724369522202218      -0.28848227622436123        5976.1859382031043     
 -0.11540649829999999        1.6949024579999999E-004   26.002507242995723        3.3594009901244655      -0.42070550783280680        5900.0140013714908     
  -7.6949670910000004E-002   1.7281457260000000E-004   26.003515749325999        4.0045945433814367      -0.71787322066852599        5786.5096321219753     
  -3.8495291020000003E-002   1.7903183470000000E-004   26.005882406740330        4.9042502507222139       -1.8425248859940297        5585.5496226719979     
  -4.8777495980000001E-005   1.9818214059999999E-004   30.339471481899679        7.4742211070223581       -355.43203438577387        4960.9765515683130     
   2.6282107459999999E-002   4.8200460150000001E-003   36.761115526350515        6.9595688532326028       -956.24312469440156        5438.7671003520381     
   5.2603937689999998E-002   9.4555737449999993E-003   36.942962260198840        5.9595264106576993       -999.61514529418343        5674.3619471473794     
   7.8923642640000000E-002   1.4093560170000000E-002   37.068462471871378        5.2579692916059173       -1028.0905495511893        5833.4709441293589     
  0.10524226730000000        1.8732549620000000E-002   37.162507283494755        4.7295852651658956       -1050.4590956977299        5959.2579566690883     
  0.13156047460000000        2.3372037339999999E-002   37.245375241412809        4.2627528159882440       -1069.9353712186660        6069.1139522079866     
  0.15787819030000000        2.8011834249999999E-002   37.313878727269149        3.8767920076108995       -1087.5160483601398        6168.4434587674004     
  0.18419569729999999        3.2651793210000002E-002   37.375856446386734        3.5267172623311289       -1104.2416421130258        6263.0972623334574     
  0.21051302550000001        3.7291839719999997E-002   37.431850330837982        3.2100414177460039       -1120.5983500564830        6355.7456537038506     
  0.23683029410000001        4.1931938379999999E-002   37.487085704709351        2.8973566533732491       -1136.9975009237792        6448.7262256718277     
  0.26314747329999999        4.6572003510000001E-002   37.539402002441662        2.6015075989723555       -1153.9555846939911        6544.9579013046105     
  0.28946453329999999        5.1211994140000001E-002   37.590202969206608        2.3146293802024624       -1171.9226567908086        6646.9559098142172     
  0.31578141450000002        5.5851876740000000E-002   37.634212256066277        2.0655738580162017       -1191.0354065055883        6755.5891165586290     
  0.34209835529999999        6.0491532090000001E-002   37.680377726766253        1.8033356142633397       -1212.6923654586524        6878.8164341308275     
  0.36841535570000000        6.5130911769999994E-002   37.730785990311013        1.5186151727987032       -1237.6610238493477        7020.9753845800151     
  0.39473202819999997        6.9769822060000000E-002   37.767435145417707        1.3108821538264512       -1267.2772093577000        7189.9109547601893     
  0.42104902859999999        7.4408002200000004E-002   37.818576625549937        1.0196197194068775       -1305.8738226058626        7410.5780426244964     
  0.44736602900000000        7.9044856129999994E-002   37.872044351692828       0.71714798695868109       -1360.2647986675422        7722.8621131491163     
  0.47368288040000001        8.3678655330000004E-002   37.925879935208535       0.41188103020907646       -1452.8846719855856        8266.1992676960726     
  0.50000000000000000        8.8295914229999994E-002   37.998122421575658        5.8996406587202366E-003  -0.0000000000000000        10420.226367955756     
  0.52631706000000000        8.3678655330000004E-002   37.925775063974292      -0.41186718502827291        1452.8346640156699        8265.9448033570661     
  0.55263412000000001        7.9044863579999999E-002   37.864387637525688      -0.76074107358967469        1360.0279519305002        7721.5192563517785     
  0.57895088200000000        7.4408009649999995E-002   37.823993544950660      -0.99033688857865254        1305.9905220050421        7411.1780163674966     
  0.60526776309999997        6.9769814609999994E-002   37.780243086644262       -1.2380948025139946        1267.7753003718854        7192.7409518823724     
  0.63158458470000001        6.5130919220000000E-002   37.732121105749378       -1.5106786026126968        1237.6712264092075        7021.0508377728247     
  0.65790152550000003        6.0491532090000001E-002   37.683400930898372       -1.7840056833073317        1212.7916106863006        6879.4384498086174     
  0.68421906229999996        5.5851869290000002E-002   37.612419090463888       -2.1867704908731009        1190.3754701105941        6751.9251058645814     
  0.71053594350000004        5.1211997869999998E-002   37.572657487540233       -2.4151116972956537        1171.3747135632873        6643.8233055053097     
  0.73685276509999997        4.6572003510000001E-002   37.533188415129764       -2.6381916429490762        1153.7949068577725        6543.9916006841122     
  0.76316982509999998        4.1931927200000003E-002   37.481510369520180       -2.9281335057853095        1136.8985355382383        6448.1853009124343     
  0.78948742149999995        3.7291832269999999E-002   37.415758933746474       -3.3022715212689877        1120.1426415517308        6353.1373237085800     
  0.81580418349999995        3.2651789489999999E-002   37.375426791371453       -3.5320375221092606        1104.2411746639120        6263.0145363114334     
  0.84212154149999996        2.8011834249999999E-002   37.323738120787510       -3.8219466347817668        1087.8101931299573        6170.0779308173678     
  0.86843913790000005        2.3372029890000000E-002   37.260053608519193       -4.1802646633795550        1070.3704654977400        6071.5535510511154     
  0.89475727080000000        1.8732540310000000E-002   37.178677777467350       -4.6382108520432634        1050.9692104964781        5962.1453034408960     
  0.92107588050000000        1.4093558300000000E-002   37.084138593420782       -5.1677461262285753        1028.5386225814025        5836.0547261004967     
  0.94739592080000001        9.4555737449999993E-003   36.948806707425959       -5.9245500203873762        999.74284799732925        5675.1387921804089     
  0.97371786829999996        4.8200492750000001E-003   36.760462420430741       -6.9632798304752646        956.22358326508970        5438.6563511606028     
   1.0000486369999999        1.9818263540000001E-004   30.341504359991823       -7.4502845718474662        355.45522629681074        4961.2437722541827     
   1.0384945870000000        1.7903096160000001E-004   26.005976110583319       -4.7968690650400188        1.8425666600642130        5585.5772030515227     
   1.0769493580000000        1.7281467440000001E-004   26.003321392052641       -3.9373051201127431       0.71778295670406345        5786.5066305614082     
   1.1154063940000001        1.6949049309999999E-004   26.002362162112053       -3.3467586313775373       0.42070585476016742        5900.0050868940643     
   1.1538647410000000        1.6733014490000000E-004   26.002261161468141       -2.8619901585239105       0.28849062034672435        5976.1850123927488     
   1.1923223730000001        1.6577749920000000E-004   26.001712291550891       -2.3091019167726072       0.21486060799880144        6032.1615786940720     
   1.2307825090000000        1.6459039760000001E-004   26.001253033884630       -2.0903314769206425       0.16889504721483992        6075.6733962564495     
   1.2692415710000000        1.6363925530000001E-004   26.001312547859786       -1.7142281060320554       0.13838937203004678        6110.9907360426560     
   1.3077015880000000        1.6284848970000000E-004   26.001564643783329       -1.4846650581623984       0.11755444129481915        6140.6682455289347     
   1.3461599350000000        1.6216676159999999E-004   26.000972575594133      -0.98437487198697038       0.10288610163451140        6166.4845504115792     
   1.3846217390000000        1.6156509810000001E-004   26.001336423329093      -0.99763032263549112        9.2720468684896556E-002   6189.4503628336943     
   1.4230790140000000        1.6101448269999999E-004   26.001346564701539      -0.34654559342960578        8.6086519638586073E-002   6210.6169332862110     
   1.4615408180000000        1.6049890839999999E-004   26.000701784783956      -0.37656724223915139        8.2173039126871295E-002   6230.5707825007175     
   1.5000000000000000        1.5999999600000000E-004   26.002479440424580       -0.0000000000000000        7.9727089939830714E-002   6250.0001582031291     
 -0.50000000000000000        3.1999999190000003E-004   26.003306034325920       -0.0000000000000000      -0.15945926502729077        6250.0001582031300     
 -0.46154263620000002        3.2099790410000000E-004   26.002330140190651       0.32590599608065046      -0.16438457696542078        6230.5662398868244     
 -0.42308384180000003        3.2202931469999999E-004   26.002272924361115       0.55588064035241846      -0.17216480297243317        6210.6045777927384     
 -0.38462632889999998        3.2313010890000000E-004   26.002393183632229       0.87294946773846771      -0.18540386579483606        6189.4443496949289     
 -0.34616792200000002        3.2433331939999999E-004   26.002200364341231        1.1277426842840057      -0.20577481029740791        6166.4762012919991     
 -0.30770987270000000        3.2569680480000002E-004   26.002466271996198        1.4061725998790575      -0.23510526942155660        6140.6581278401418     
 -0.26925230030000002        3.2727816139999999E-004   26.002825223590289        1.7166867081559369      -0.27677390241323307        6110.9785980359684     
 -0.23079538350000001        3.2918035869999998E-004   26.003105403275708        2.0669784980790604      -0.33781393498955381        6075.6560905944452     
 -0.19233874979999999        3.3155464919999998E-004   26.003479993577024        2.4366971795216803      -0.42974800799064683        6032.1385354108870     
 -0.15388311450000000        3.3465982410000000E-004   26.004023570208997        2.8738182567708410      -0.57690315394301606        5976.1571686278894     
 -0.11542839560000000        3.3897912360000002E-004   26.005013315579014        3.3614618091592945      -0.84119758418623192        5899.9922931982765     
  -7.6976284379999996E-002   3.4562489599999999E-004   26.007027866030366        4.0057826004012957       -1.4346352383413006        5786.5232261878273     
  -3.8529042149999998E-002   3.5804454820000001E-004   26.011781400010094        4.9045146735234946       -3.6713147963858392        5585.7797552188586     
  -9.7575182739999998E-005   3.9615426790000000E-004   30.339014189674074        7.4819491366343867       -355.71779592882325        4966.1130125356567     
   2.6248414070000000E-002   4.9979900940000004E-003   36.749834109877384        6.9597701882110563       -953.17921792883897        5439.1541798444541     
   5.2576292310000002E-002   9.6269343049999994E-003   36.937065012348704        5.9601658059052944       -998.29956842205377        5674.5153102012619     
   7.8899919989999998E-002   1.4260803350000000E-002   37.064373488140333        5.2582599463927595       -1027.1835716478467        5833.6255185830614     
  0.10522138330000000        1.8896671010000001E-002   37.159374660326698        4.7293318964606037       -1049.7512592417509        5959.5165678014027     
  0.13154198230000000        2.3533547299999999E-002   37.242450355265852        4.2641736607994849       -1069.2958890263303        6069.2082315214593     
  0.15786164999999999        2.8171030800000000E-002   37.311003433322796        3.8801667926539869       -1086.9605395085589        6168.6879224151271     
  0.18418088560000001        3.2808843999999997E-002   37.374779204765602        3.5213385534449255       -1103.7228852942374        6263.3774591311912     
  0.21049973370000000        3.7446834149999997E-002   37.429995889109982        3.2099475604615053       -1120.0781413077793        6355.9435847528739     
  0.23681846260000000        4.2084917430000000E-002   37.484991590569976        2.8991845090041739       -1136.5066300661845        6449.1018669309278     
  0.26313698289999998        4.6722944830000002E-002   37.536418000356150        2.6088723487511678       -1153.4181090781788        6545.1713480590843     
  0.28945535420000001        5.1360815759999998E-002   37.587973851089195        2.3184582950135244       -1171.4077090412691        6647.4525510502872     
  0.31577336789999999        5.5998478079999997E-002   37.632731999129106        2.0657025554246866       -1190.5104634709483        6756.3045871122904     
  0.34209147099999998        6.0635685920000001E-002   37.680216778119224        1.7956910547912217       -1212.1039648628387        6879.6282807697580     
  0.36840966339999998        6.5272331239999995E-002   37.728725984497643        1.5226675816005784       -1236.9346884190170        7021.6140621777904     
  0.39472725990000002        6.9908060130000005E-002   37.768264209784533        1.2988033588337777       -1266.4343946115318        7190.9310226996049     
  0.42104539279999997        7.4542298909999999E-002   37.817114442743915        1.0196934247994300       -1304.6736608365118        7411.4326406344580     
  0.44736352559999998        7.9173900189999993E-002   37.865916083014895       0.74341290246402181       -1358.3287717423232        7723.5186230230365     
  0.47368159890000000        8.3799384530000007E-002   37.925973328983858       0.40264602057025739       -1448.1490315440849        8269.1591709192653     
  0.49999997019999998        8.8391937320000002E-002   37.996207674504447       -0.0000000000000000       -1.4730631858238640E-003   10407.701949226641     
  0.52631843089999997        8.3799391979999999E-002   37.922466797079785      -0.42132032023560856        1447.9704554343411        8268.1909640584890     
  0.55263674259999995        7.9173900189999993E-002   37.866083339255148      -0.74343764879946628        1358.3728938676002        7723.7407368863696     
  0.57895439859999998        7.4542313809999997E-002   37.822829416158108      -0.99038881083003460        1304.7653951357374        7411.8267726686627     
  0.60527223350000003        6.9908037780000001E-002   37.778866390894990       -1.2381164157020579        1266.8250608975347        7193.1597706476359     
  0.63159024720000001        6.5272338690000001E-002   37.731949143123558       -1.5029193652710944        1237.0373777938462        7022.2616253836431     
  0.65790837999999996        6.0635685920000001E-002   37.680168437182679       -1.7917243764392341        1212.0573536560441        6879.4890022419722     
  0.68422758579999998        5.5998470629999998E-002   37.613404016064337       -2.1716467760217228        1189.8678321418020        6752.7815071110763     
  0.71054542060000003        5.1360823210000003E-002   37.574017205960764       -2.4003150043697357        1170.9434484034805        6644.7352097815183     
  0.73686331510000003        4.6722937380000003E-002   37.532886400799065       -2.6309551660389077        1153.3555098502306        6544.7347320877980     
  0.76318180560000004        4.2084898799999999E-002   37.478288718528212       -2.9351703485032319        1136.3042813058803        6448.0105308343900     
  0.78950107100000000        3.7446819249999999E-002   37.417651741890914       -3.2809620106190938        1119.7472983548487        6354.0476269439168     
  0.81581914420000001        3.2808840270000000E-002   37.370129255032239       -3.5528938357851465        1103.6102262190434        6262.5944789591767     
  0.84213787320000000        2.8171028939999999E-002   37.318159656037018       -3.8424891616413208        1087.1696729426035        6169.7854962460842     
  0.86845731739999998        2.3533537980000001E-002   37.255161390133047       -4.1934879095514868        1069.6685084340236        6071.2725335396899     
  0.89477777479999998        1.8896656110000000E-002   37.174424995656800       -4.6444303967691392        1050.1997712602492        5962.0506001866133     
  0.92109924550000000        1.4260798690000000E-002   37.077760819514204       -5.1801107103137429        1027.5637385164487        5835.8565288646723     
  0.94742339850000001        9.6269398929999996E-003   36.942896111045265       -5.9236237070528501        998.43450811477692        5675.3797187722312     
  0.97375160459999999        4.9979942849999997E-003   36.748560712838241       -6.9669973251636188        953.14167192795583        5438.9381849079709     
   1.0000972749999999        3.9615531569999997E-004   30.342046254636479       -7.4491106731713925        355.75269305747071        4966.4829582538950     
   1.0385276080000001        3.5804326759999999E-004   26.012021043016485       -4.8071116623869461        3.6714071881507593        5585.7989409399779     
   1.0769754650000001        3.4562518700000002E-004   26.006625101793205       -3.9289332259322722        1.4344752445245883        5786.5194461970432     
   1.1154282090000001        3.3897964750000001E-004   26.004785075313126       -3.3379600402940666       0.84120678873272436        5899.9841848956376     
   1.1538829799999999        3.3465988239999997E-004   26.004502594299069       -2.8438224382732851       0.57692273338664435        5976.1567937979871     
   1.1923371549999999        3.3155505660000000E-004   26.003319411907306       -2.3560623366553664       0.42970824230246529        6032.1314004659444     
   1.2307957410000001        3.2918088249999999E-004   26.002565041441137       -2.0904325173928786       0.33779721969262616        6075.6469236558323     
   1.2692523000000000        3.2727868529999998E-004   26.002604475176064       -1.6954006363704504       0.27678964282239599        6110.9698570761539     
   1.3077108860000000        3.2569709579999999E-004   26.003068363854140       -1.4656672981336658       0.23512211963047888        6140.6521008958516     