VARIABLES = "X" "Y" "p" "rho" "T" "u" "v" "M"
ZONE I=  65    J=   57
 -0.50000000000000000        0.0000000000000000       0.17857142857142860        1.0000000000000000       0.17857142857142860        0.0000000000000000        0.0000000000000000        1.9999999999999998     
 -0.46153846380000002        0.0000000000000000       0.17679271359464208       0.47247457656002290       0.37418460667625453        0.0000000000000000        0.0000000000000000        2.0100358401920189     
 -0.42307692769999999        0.0000000000000000       0.20597334516767285       0.50144159334916516       0.41076238568875345        0.0000000000000000        0.0000000000000000        1.8622177891123048     
 -0.38461539150000001        0.0000000000000000       0.20794239640881207       0.48636740657314464       0.42754179987909957        0.0000000000000000        0.0000000000000000        1.8533799472620132     
 -0.34615385529999998        0.0000000000000000       0.20291208517332754       0.46777737852042872       0.43377917464742471        0.0000000000000000        0.0000000000000000        1.8762125008516961     
 -0.30769228939999999        0.0000000000000000       0.19834014858766061       0.45535167579823022       0.43557575195033793        0.0000000000000000        0.0000000000000000        1.8977135783685091     
 -0.26923075320000001        0.0000000000000000       0.19659335375635442       0.45075970450809566       0.43613781753382880        0.0000000000000000        0.0000000000000000        1.9061258293857239     
 -0.23076921700000000        0.0000000000000000       0.19820496405977900       0.45469842611160011       0.43590422283786845        0.0000000000000000        0.0000000000000000        1.8983606302400831     
 -0.19230768079999999        0.0000000000000000       0.20347806592480308       0.46797648544944720       0.43480403877425938        0.0000000000000000        0.0000000000000000        1.8736013112563505     
 -0.15384614469999999        0.0000000000000000       0.21181171582223537       0.48973415889483091       0.43250345514028432        0.0000000000000000        0.0000000000000000        1.8363733985069612     
 -0.11538460110000000        0.0000000000000000       0.22157526941369055       0.51805996459061476       0.42770197382224934        0.0000000000000000        0.0000000000000000        1.7954583668472912     
  -7.6923057439999998E-002   0.0000000000000000       0.23037508455189618       0.55057965823739252       0.41842280423038392        0.0000000000000000        0.0000000000000000        1.7608332414816958     
  -3.8461521270000000E-002   0.0000000000000000       0.23686516608797495       0.59084227340169293       0.40089407402123822        0.0000000000000000        0.0000000000000000        1.7365423677983181     
   1.8626451489999999E-008   0.0000000000000000       0.24166845347475538       0.63208263740991433       0.38233680087312705        0.0000000000000000        0.0000000000000000        1.7191984095866282     
   2.6315789669999999E-002   4.6421056610000001E-003  0.24647125277557697       0.65903194039234925       0.37398984429926468        0.0000000000000000        0.0000000000000000        1.7023656433174401     
   5.2631579339999998E-002   9.2842113230000006E-003  0.25042613359797194       0.68036098776608389       0.36807832621360032        0.0000000000000000        0.0000000000000000        1.6888697540084650     
   7.8947365280000001E-002   1.3926316050000000E-002  0.25592267083927217       0.69963270103557273       0.36579575320087820        0.0000000000000000        0.0000000000000000        1.6706351029053557     
  0.10526315870000000        1.8568422649999999E-002  0.26193362759394995       0.71761762138194818       0.36500445333203035        0.0000000000000000        0.0000000000000000        1.6513546486249562     
  0.13157895210000001        2.3210527379999998E-002  0.26809051814135759       0.73384855558443951       0.36532131337078039        0.0000000000000000        0.0000000000000000        1.6322822392539089     
  0.15789473060000001        2.7852632110000001E-002  0.27394082766483918       0.74795305542979396       0.36625403917552740        0.0000000000000000        0.0000000000000000        1.6147585782705176     
  0.18421052399999999        3.2494738699999998E-002  0.27916506014426978       0.75917980508844751       0.36771929162650202        0.0000000000000000        0.0000000000000000        1.5995781064825432     
  0.21052631740000000        3.7136845289999998E-002  0.28358813670882344       0.76727618936524433       0.36960372371705097        0.0000000000000000        0.0000000000000000        1.5870549084189376     
  0.23684211080000001        4.1778948160000003E-002  0.28714277060837823       0.77224827724758804       0.37182701349855951        0.0000000000000000        0.0000000000000000        1.5772009823469828     
  0.26315790410000001        4.6421054750000003E-002  0.28980058990953506       0.77423326878920151       0.37430655797411660        0.0000000000000000        0.0000000000000000        1.5699519102088613     
  0.28947368260000000        5.1063157620000001E-002  0.29153404700382080       0.77336865939774968       0.37696646154610008        0.0000000000000000        0.0000000000000000        1.5652774960313529     
  0.31578946110000000        5.5705264210000001E-002  0.29223851849936211       0.76956416140082951       0.37974548862489049        0.0000000000000000        0.0000000000000000        1.5633897251690037     
  0.34210526940000002        6.0347370800000001E-002  0.29162840187533856       0.76226667922242120       0.38258054539760949        0.0000000000000000        0.0000000000000000        1.5650242567991279     
  0.36842104790000002        6.4989477399999995E-002  0.28891033085878592       0.74970541817211445       0.38536513656682553        0.0000000000000000        0.0000000000000000        1.5723689038232269     
  0.39473685619999999        6.9631583989999996E-002  0.28172299264155104       0.72562852761628283       0.38824685347890298        0.0000000000000000        0.0000000000000000        1.5922997818773301     
  0.42105263469999998        7.4273690579999996E-002  0.26540439532048393       0.67883143667105350       0.39097245793743779        0.0000000000000000        0.0000000000000000        1.6405215010627896     
  0.44736841319999998        7.8915789720000004E-002  0.24498802048460455       0.63834761545359930       0.38378465675088347        0.0000000000000000        0.0000000000000000        1.7075111876340523     
  0.47368422150000000        8.3557896320000005E-002  0.20229476244084235       0.58906597529762195       0.34341613830035622        0.0000000000000000        0.0000000000000000        1.8790730454025386     
  0.50000000000000000        8.8200002910000005E-002  0.10198745580086747       0.39704196525137403       0.25686820217177164        0.0000000000000000        0.0000000000000000        2.6464433580327364     
  0.52631580830000002        8.3557896320000005E-002  0.13559776511526822       0.38214924368609043       0.35482934313132525        0.0000000000000000        0.0000000000000000        2.2951428239191256     
  0.55263155700000000        7.8915797169999996E-002  0.15690187766847663       0.41834388639285619       0.37505478811069332        0.0000000000000000        0.0000000000000000        2.1336437687223779     
  0.57894736530000002        7.4273690579999996E-002  0.14467838411158057       0.36027195207243951       0.40158103698977443        0.0000000000000000        0.0000000000000000        2.2219493629865510     
  0.60526317360000004        6.9631576540000004E-002  0.12943545511784224       0.31660457208294823       0.40882370796569240        0.0000000000000000        0.0000000000000000        2.3491424596558375     
  0.63157892230000001        6.4989477399999995E-002  0.12248525997145626       0.29740896979008141       0.41184117633677753        0.0000000000000000        0.0000000000000000        2.4148717333023288     
  0.65789473060000003        6.0347370800000001E-002  0.11949283685869500       0.28857142698449811       0.41408409040134830        0.0000000000000000        0.0000000000000000        2.4449222129968602     
  0.68421053890000005        5.5705264210000001E-002  0.11783285594509142       0.28346277273095372       0.41569076182335757        0.0000000000000000        0.0000000000000000        2.4620835143785764     
  0.71052628760000003        5.1063165069999999E-002  0.11702039022296351       0.28062238591179378       0.41700304786000136        0.0000000000000000        0.0000000000000000        2.4706157811268188     
  0.73684209590000005        4.6421054750000003E-002  0.11697063166946864       0.27938428437690932       0.41867291114938632        0.0000000000000000        0.0000000000000000        2.4711412172755112     
  0.76315790409999995        4.1778948160000003E-002  0.11763565709245467       0.27929623228937950       0.42118597923144230        0.0000000000000000        0.0000000000000000        2.4641463104337276     
  0.78947371239999997        3.7136837839999999E-002  0.11897450388508501       0.28019852096644404       0.42460789398432669        0.0000000000000000        0.0000000000000000        2.4502422877731651     
  0.81578946109999995        3.2494738699999998E-002  0.12092578852206604       0.28220212968177355       0.42850771062014492        0.0000000000000000        0.0000000000000000        2.4303930699689191     
  0.84210526939999997        2.7852632110000001E-002  0.12335749613027262       0.28582103680825338       0.43158998199642157        0.0000000000000000        0.0000000000000000        2.4063190506226144     
  0.86842107769999999        2.3210521790000001E-002  0.12606276695211793       0.29175592258834471       0.43208297481586067        0.0000000000000000        0.0000000000000000        2.3803595662196595     
  0.89473682639999996        1.8568424510000001E-002  0.12878527404648960       0.30148614805508406       0.42716812987029651        0.0000000000000000        0.0000000000000000        2.3550648955420064     
  0.92105263469999998        1.3926316050000000E-002  0.13135084829291224       0.31570650558347246       0.41605366367144186        0.0000000000000000        0.0000000000000000        2.3319516476592064     
  0.94736844300000000        9.2842066659999996E-003  0.13369537752402430       0.33617442916338763       0.39769645138311699        0.0000000000000000        0.0000000000000000        2.3114142489292622     
  0.97368419169999998        4.6421089210000000E-003  0.13603967118695126       0.35951351111061730       0.37839932848891944        0.0000000000000000        0.0000000000000000        2.2914120645989766     
   1.0000000000000000        0.0000000000000000       0.13689389097333352       0.38386554654149307       0.35661937417073269        0.0000000000000000        0.0000000000000000        2.2842516552558720     
   1.0384615660000001        0.0000000000000000       0.13967845762308706       0.40986255429398655       0.34079341027796939        0.0000000000000000        0.0000000000000000        2.2613681274988378     
   1.0769231319999999        0.0000000000000000       0.14300135836516215       0.43047481120397746       0.33219448535259816        0.0000000000000000        0.0000000000000000        2.2349401664514752     
   1.1153845790000001        0.0000000000000000       0.14734949043758425       0.44771755905303373       0.32911260114354857        0.0000000000000000        0.0000000000000000        2.2017178480283977     
   1.1538461449999999        0.0000000000000000       0.15201403120970780       0.46212372124966744       0.32894660935957570        0.0000000000000000        0.0000000000000000        2.1676748764455200     
   1.1923077110000000        0.0000000000000000       0.15640589842553687       0.47351563957656967       0.33030777730044819        0.0000000000000000        0.0000000000000000        2.1370240932813345     
   1.2307692770000001        0.0000000000000000       0.16011220242270874       0.48173545164783838       0.33236541316405976        0.0000000000000000        0.0000000000000000        2.1121451797181141     
   1.2692307229999999        0.0000000000000000       0.16294607426267424       0.48686069283256900       0.33468726611435701        0.0000000000000000        0.0000000000000000        2.0936979666179298     
   1.3076922890000000        0.0000000000000000       0.16490433374396737       0.48922809306223386       0.33707045053725110        0.0000000000000000        0.0000000000000000        2.0812293776251023     
   1.3461538550000001        0.0000000000000000       0.16605630888511444       0.48919432627372411       0.33944855851046640        0.0000000000000000        0.0000000000000000        2.0739978033833530     
   1.3846154209999999        0.0000000000000000       0.16655695833010759       0.48726422559668736       0.34182061719418771        0.0000000000000000        0.0000000000000000        2.0708783680890912     
   1.4230769870000000        0.0000000000000000       0.16653900680444331       0.48380858109590824       0.34422499581798299        0.0000000000000000        0.0000000000000000        2.0709899768501225     
   1.4615384339999999        0.0000000000000000       0.16612692424259937       0.47922712064239220       0.34665593220164648        0.0000000000000000        0.0000000000000000        2.0735569607452278     
   1.5000000000000000        0.0000000000000000       0.16571484168075543       0.47470946802531466       0.34908686858530996        0.0000000000000000        0.0000000000000000        2.0761335136635144     
 -0.50000000000000000        1.5999999600000000E-004  0.17857142857142860        1.0000000000000000       0.17857142857142860        1.0000000000000000        0.0000000000000000        1.9999999999999998     
 -0.46154057980000002        1.6049893749999999E-004  0.17679271336541791       0.47247457593833375       0.37418460668345566       0.12259496652643422       -1.4300947082364400E-002   2.0100358414950952     
 -0.42308041450000000        1.6101459910000001E-004  0.20597334392570948       0.50144159203932148       0.41076238428494322        5.7827257554550981E-002  -7.9302474450793844E-003   1.8622177947266387     
 -0.38462087509999998        1.6156499619999999E-004  0.20794239504680961       0.48636741177477538       0.42754179250624330        3.1721234225045150E-002  -4.4434704806023684E-003   1.8533799533317423     
 -0.34616088870000000        1.6216657240000000E-004  0.20291209283135170       0.46777741823187491       0.43377915419330737        2.2066073580271378E-002  -2.0251007112780067E-003   1.8762124654470032     
 -0.30770108099999999        1.6284831509999999E-004  0.19834018909214871       0.45535181572481498       0.43557570705287935        1.7404554728092970E-002  -1.1732958275092686E-003   1.8977133845955745     
 -0.26924151180000000        1.6363897880000000E-004  0.19659346805324543       0.45076005194332697       0.43613773493389046        1.4299676104410167E-002  -9.0697729156194570E-004   1.9061252752872333     
 -0.23078230020000001        1.6459012110000000E-004  0.19820519736373854       0.45469909542157433       0.43590409428893312        1.1405116583277882E-002  -9.0445058082370326E-004   1.8983595129757835     
 -0.19232320789999999        1.6577732459999999E-004  0.20347843460197970       0.46797751997052150       0.43480386539677601        8.1386126718051861E-003  -9.5084583684536532E-004   1.8735996138913305     
 -0.15386462209999999        1.6733008670000000E-004  0.21181217066489641       0.48973542626416811       0.43250326463138661        4.6223827314274494E-003  -8.7840234566923425E-004   1.8363714268038978     
 -0.11540649829999999        1.6949024579999999E-004  0.22157571435094714       0.51806120732435712       0.42770180669447233        1.5600932814223249E-003  -6.4239298318864821E-004   1.7954565641526152     
  -7.6949670910000004E-002   1.7281457260000000E-004  0.23037545507354501       0.55058055189641719       0.41842279804479260       -3.6501999196799549E-004  -3.2343954998714292E-004   1.7608318254734279     
  -3.8495291020000003E-002   1.7903183470000000E-004  0.23686541070843051       0.59084264559111033       0.40089423550572889       -9.3270765917976802E-004  -6.5531023030283538E-005   1.7365414710994429     
  -4.8777495980000001E-005   1.9818214059999999E-004  0.24166864733012411       0.63208227319227406       0.38233732787600350       -7.3237376539725277E-004  -7.6555537213135591E-005   1.7191977200559172     
   2.6282107459999999E-002   4.8200460150000001E-003  0.24647138279311592       0.65903120672850646       0.37399045792781693       -1.0852687451414333E-003  -3.2373169526026457E-004   1.7023651943050273     
   5.2603937689999998E-002   9.4555737449999993E-003  0.25042619917953940       0.68035992942699597       0.36807899517311393       -1.7737003485473483E-003  -4.2056425909220755E-004   1.6888695328679986     
   7.8923642640000000E-002   1.4093560170000000E-002  0.25592267472585356       0.69963137531934039       0.36579645189445653       -2.1941019815650917E-003  -4.0588941740340491E-004   1.6706350902197675     
  0.10524226730000000        1.8732549620000000E-002  0.26193357826640834       0.71761612460617719       0.36500514590604510       -2.0854399016269121E-003  -2.6494805011583286E-004   1.6513548041171651     
  0.13156047460000000        2.3372037339999999E-002  0.26809041901442537       0.73384696493285007       0.36532197014531048       -1.5187129951089657E-003  -6.7746956931818126E-005   1.6322825410235815     
  0.15787819030000000        2.8011834249999999E-002  0.27394069283050460       0.74795148689472202       0.36625462697831784       -6.2186234974353919E-004   1.5328982811922454E-004   1.6147589756646934     
  0.18419569729999999        3.2651793210000002E-002  0.27916490388572701       0.75917835070058548       0.36771979025496165        4.4405964851355082E-004   3.6773609782507407E-004   1.5995785541529084     
  0.21051302550000001        3.7291839719999997E-002  0.28358797235498495       0.76727492506239925       0.36960411853928621        1.5355258574818850E-003   5.5834899275149978E-004   1.5870553683089077     
  0.23683029410000001        4.1931938379999999E-002  0.28714260677431569       0.77224724700348757       0.37182729739536247        2.5541353142919856E-003   7.1839439356689123E-004   1.5772014322962442     
  0.26314747329999999        4.6572003510000001E-002  0.28980042889645419       0.77423248757809693       0.37430672768975221        3.4472892038621234E-003   8.4853960782929974E-004   1.5699523463413401     
  0.28946453329999999        5.1211994140000001E-002  0.29153388200522740       0.77336810539779477       0.37696651823425287        4.1995244827303718E-003   9.5441833653987665E-004   1.5652779389790934     
  0.31578141450000002        5.5851876740000000E-002  0.29223834286497874       0.76956379958055310       0.37974543894120510        4.8254196155089676E-003   1.0482504745217898E-003   1.5633901949652433     
  0.34209835529999999        6.0491532090000001E-002  0.29162820928858951       0.76226646313626867       0.38258040120080133        5.3760610134014437E-003   1.1507501634092231E-003   1.5650247735579230     
  0.36841535570000000        6.5130911769999994E-002  0.28891011723099769       0.74970530050771167       0.38536491209991902        5.9663041255570851E-003   1.2726944933053208E-003   1.5723694851487138     
  0.39473202819999997        6.9769822060000000E-002  0.28172281068411892       0.72562856830919398       0.38824658094783748        6.5037249326137673E-003   1.3804631786700522E-003   1.5923002960897432     
  0.42104902859999999        7.4408002200000004E-002  0.26540474219837656       0.67883239714715871       0.39097241574467984        6.0636280717454947E-003   2.0045730691788544E-003   1.6405204290005078     
  0.44736602900000000        7.9044856129999994E-002  0.24502376308065149       0.63841450842442982       0.38380043035888395        7.4129677355433089E-003   8.8197129578508286E-003   1.7073866423496991     
  0.47368288040000001        8.3678655330000004E-002  0.20254647670497067       0.58837329326066656       0.34424825026046291        7.0908193426356542E-002   2.4657046426512803E-002   1.8779050751182542     
  0.50000000000000000        8.8295914229999994E-002  0.12322866645618777       0.45410953560802569       0.27136330949578474       0.14048851453671682      -0.18788938026853516        2.4075765677505192     
  0.52631706000000000        8.3678655330000004E-002  0.13467474304487292       0.38153658910111132       0.35297988945742415        7.4083071066302242E-002  -3.0629273717275154E-002   2.3029945189627998     
  0.55263412000000001        7.9044863579999999E-002  0.15700151968714204       0.41852765478562876       0.37512818541837750        8.0485937560761250E-003  -1.5858254270089654E-002   2.1329665959299149     
  0.57895088200000000        7.4408009649999995E-002  0.14468495298984982       0.36028388887598389       0.40158596444942046        8.4266808379156177E-003  -2.5117887270579954E-003   2.2218989227705710     
  0.60526776309999997        6.9769814609999994E-002  0.12943593145341312       0.31660527836198088       0.40882430047621171        9.5733356692953419E-003  -2.0761010790867865E-003   2.3491381371268010     
  0.63158458470000001        6.5130919220000000E-002  0.12248558507127040       0.29740929202708960       0.41184182322088903        8.6253548991046536E-003  -2.0730932500139967E-003   2.4148685285379798     
  0.65790152550000003        6.0491532090000001E-002  0.11949299496839631       0.28857135719209087       0.41408473845467075        7.6205045913134749E-003  -1.8484680169530117E-003   2.4449205954708755     
  0.68421906229999996        5.5851869290000002E-002  0.11783305939470713       0.28346275625147432       0.41569150371970343        6.8944187201557677E-003  -1.6532063841593198E-003   2.4620813888708302     
  0.71053594350000004        5.1211997869999998E-002  0.11702064405558407       0.28062260131047534       0.41700363231297516        6.1424968719533323E-003  -1.5361632580012509E-003   2.4706131015858572     
  0.73685276509999997        4.6572003510000001E-002  0.11697094247344920       0.27938492590657332       0.41867306224160583        5.2877555182944853E-003  -1.4273183945432823E-003   2.4711379342334974     
  0.76316982509999998        4.1931927200000003E-002  0.11763601775774857       0.27929738911087026       0.42118552605248888        4.3228682237840344E-003  -1.2988334687593186E-003   2.4641425329650946     
  0.78948742149999995        3.7291832269999999E-002  0.11897490185682208       0.28020014580367508       0.42460685206132259        3.2698997828645936E-003  -1.1376357477224112E-003   2.4502381897324033     
  0.81580418349999995        3.2651789489999999E-002  0.12092620576731751       0.28220404439869051       0.42850628177559397        2.1817992749153707E-003  -9.3375427350796906E-004   2.4303888770363948     
  0.84212154149999996        2.8011834249999999E-002  0.12335791264976270       0.28582299799090716       0.43158847789318572        1.1623470004702477E-003  -6.9135563088500000E-004   2.4063149881364367     
  0.86843913790000005        2.3372029890000000E-002  0.12606316373043094       0.29175765322738612       0.43208177175795126        3.2290967076882392E-004  -4.3140035582165857E-004   2.3803558201777220     
  0.89475727080000000        1.8732540310000000E-002  0.12878563392232217       0.30148740514172906       0.42716754241119997       -2.5635039329591956E-004  -1.8479716948428847E-004   2.3550616050681143     
  0.92107588050000000        1.4093558300000000E-002  0.13135115704257036       0.31570705811636401       0.41605391347999782       -5.4221480825044266E-004   1.3000190580580813E-005   2.3319489069536301     
  0.94739592080000001        9.4555737449999993E-003  0.13369562440175545       0.33617421817102067       0.39769743536293722       -5.4489104480502485E-004   1.6028027871137034E-004   2.3114121148393414     
  0.97371786829999996        4.8200492750000001E-003  0.13603984417800405       0.35951256823366673       0.37840080208151267       -2.3127840130889707E-004   7.7539116457086505E-005   2.2914106076952518     
   1.0000486369999999        1.9818263540000001E-004  0.13689405968415774       0.38386423706836242       0.35662103021016323       -4.0003611153680880E-004  -6.1337617831384359E-005   2.2842502476780004     
   1.0384945870000000        1.7903096160000001E-004  0.13967842796981303       0.40986050148559505       0.34079504481044059       -1.0755983371665604E-003  -7.9211829524916040E-005   2.2613683675393590     
   1.0769493580000000        1.7281467440000001E-004  0.14300118599893447       0.43047212237456839       0.33219615990487833       -1.1489436881644440E-003   7.6053879063406836E-005   2.2349415133916661     
   1.1154063940000001        1.6949049309999999E-004  0.14734925252553210       0.44771444864200877       0.32911435619839052       -6.4326925867404510E-004   2.0789788170737721E-004   2.2017196254890603     
   1.1538647410000000        1.6733014490000000E-004  0.15201385504370946       0.46212059826181623       0.32894845115210686        3.6053920665912059E-004   2.9814036009568012E-004   2.1676761324839839     
   1.1923223730000001        1.6577749920000000E-004  0.15640591413937827       0.47351289420159565       0.33030972557378607        1.6188601649491422E-003   3.3099648961622621E-004   2.1370239859297082     
   1.2307825090000000        1.6459039760000001E-004  0.16011247670811157       0.48173330507025991       0.33236746353827346        2.9062895193347612E-003   3.1811416804957597E-004   2.1121433705810269     
   1.2692415710000000        1.6363925530000001E-004  0.16294661246669404       0.48685922048435704       0.33468938372900664        4.0617268595453532E-003   2.7675103240213538E-004   2.0936945089283978     
   1.3077015880000000        1.6284848970000000E-004  0.16490510006797085       0.48922728127350251       0.33707257624453829        5.0074622363086765E-003   2.2336211527125023E-004   2.0812245418198998     
   1.3461599350000000        1.6216676159999999E-004  0.16605724466687824       0.48919411424569936       0.33945061854009845        5.7249175528043149E-003   1.7036046452718458E-004   2.0739919595791254     
   1.3846217390000000        1.6156509810000001E-004  0.16655800234874266       0.48726453542365911       0.34182254245925453        6.2415932185202454E-003   1.2565151051610029E-004   2.0708718777404895     
   1.4230790140000000        1.6101448269999999E-004  0.16654010839119043       0.48380934166934730       0.34422673158099110        6.6000703015919463E-003   7.8499421551275978E-005   2.0709831275124264     
   1.4615408180000000        1.6049890839999999E-004  0.16612804481457263       0.47922826101875199       0.34665744558013895        6.7557866421817103E-003   5.5419412431554267E-005   2.0735499674234918     
   1.5000000000000000        1.5999999600000000E-004  0.16571483684076038       0.47464566018887616       0.34913378703350478        6.9143685851373012E-003   3.1888480714284937E-005   2.0761335439820909     
 -0.50000000000000000        3.1999999190000003E-004  0.17857142857142860        1.0000000000000000       0.17857142857142860        1.0000000000000000        0.0000000000000000        1.9999999999999998     
 -0.46154263620000002        3.2099790410000000E-004  0.17566264746297811       0.48103408508742718       0.36517713174327698       0.21429875074683333        2.8191026440396649E-003   2.0164909175070762     
 -0.42308384180000003        3.2202931469999999E-004  0.20213487354734511       0.49762474788429040       0.40619939905871860       0.11448727887153098       -5.7265999464638862E-003   1.8798160728563904     
 -0.38462632889999998        3.2313010890000000E-004  0.20578040469485720       0.48290924559991466       0.42612645454575565        6.4432316979300644E-002  -3.5168376539039150E-003   1.8630905957362291     
 -0.34616792200000002        3.2433331939999999E-004  0.20188353410444004       0.46611839847148467       0.43311642442449200        4.4829828251940679E-002  -1.6367092606432198E-003   1.8809858685121963     
 -0.30770987270000000        3.2569680480000002E-004  0.19776219204185516       0.45443880620613891       0.43517892693377919        3.5024682560621821E-002  -9.5031602467223028E-004   1.9004845726632651     
 -0.26925230030000002        3.2727816139999999E-004  0.19615418629862977       0.45002091801532496       0.43587793021645710        2.8657050234269621E-002  -7.4092936423247456E-004   1.9082584384978158     
 -0.23079538350000001        3.2918035869999998E-004  0.19775692395110694       0.45384093749628973       0.43574060339747039        2.2861211826224779E-002  -7.3871235907397529E-004   1.9005098862106182     
 -0.19233874979999999        3.3155464919999998E-004  0.20298203258704101       0.46693445994733551       0.43471204204961633        1.6426873230940640E-002  -7.7359566530103873E-004   1.8758892024832265     
 -0.15388311450000000        3.3465982410000000E-004  0.21132364926198699       0.48864588403388282       0.43246787943338894        9.5471471768788646E-003  -7.1199386911817181E-004   1.8384927910762099     
 -0.11542839560000000        3.3897912360000002E-004  0.22119896457022362       0.51717496358025128       0.42770625058670236        3.5268460690250241E-003  -5.2192428486541966E-004   1.7969849394845459     
  -7.6976284379999996E-002   3.4562489599999999E-004  0.23018004844066481       0.55008755243416863       0.41844256868221258       -3.6754691704223035E-004  -2.6473928165763461E-004   1.7615790779543818     
  -3.8529042149999998E-002   3.5804454820000001E-004  0.23682303313994021       0.59075210682224755       0.40088394168215524       -1.7545508125560256E-003  -5.6889803973443392E-005   1.7366968341828906     