VARIABLES = "X" "Y"
ZONE I=  41    J=   19
 -0.80000001192092896        0.0000000000000000     
 -0.67343966800369592        0.0000000000000000     
 -0.57122660913291279        0.0000000000000000     
 -0.48548761508826216        0.0000000000000000     
 -0.41164210678794494        0.0000000000000000     
 -0.34678881270475936        0.0000000000000000     
 -0.28897357346315394        0.0000000000000000     
 -0.23681724209410027        0.0000000000000000     
 -0.18931016848742990        0.0000000000000000     
 -0.14569087598385741        0.0000000000000000     
 -0.10537089195487361        0.0000000000000000     
  -6.7886025250333770E-002   0.0000000000000000     
  -3.2863620917314353E-002   0.0000000000000000     
   0.0000000000000000        0.0000000000000000     
   2.1023096298039789E-002   3.0309216629166379E-002
   4.2969079553192450E-002   4.1788565783228669E-002
   6.5922713895789811E-002   5.0036832423623619E-002
   8.9980997987783168E-002   5.6494900541667573E-002
  0.11525565852199236        6.1700098992237003E-002
  0.14187628352450812        6.5910668559850227E-002
  0.16999431252824906        6.9263612036760430E-002
  0.19978830622344981        7.1831568307082636E-002
  0.23147078942780200        7.3647309241908376E-002
  0.26529746458926845        7.4715160955629564E-002
  0.30157978671445751        7.5016049303561400E-002
  0.34070234310026837        7.4508722260183097E-002
  0.38314789525404930        7.3127956334355551E-002
  0.42953378150296939        7.0779497027182670E-002
  0.48066715293537488        6.7330404451891882E-002
  0.53763176848431216        6.2591679113407239E-002
  0.60193088073219692        5.6286272792140865E-002
  0.67573625663221726        4.7986450346937645E-002
  0.76235471782801489        3.6979463399228960E-002
  0.86718946523379092        2.1941600435130409E-002
   1.0000000000000000        0.0000000000000000     
   1.1333333253860474        0.0000000000000000     
   1.2666666507720947        0.0000000000000000     
   1.3999999761581421        0.0000000000000000     
   1.5333333015441895        0.0000000000000000     
   1.6666666269302368        0.0000000000000000     
   1.7999999523162842        0.0000000000000000     
 -0.80000001192092896        2.4614517989953628E-002
 -0.67843994659980056        2.4614517989953628E-002
 -0.57987469564747329        2.4614517989953628E-002
 -0.49686843994618463        2.4614517989953628E-002
 -0.42509507700764781        2.4614517989953628E-002
 -0.36181451703332801        2.4614517989953628E-002
 -0.30518116503420767        2.4614517989953628E-002
 -0.25389249250743329        2.4614517989953628E-002
 -0.20699494256492024        2.4614517989953628E-002
 -0.16376934199605378        2.4614517989953628E-002
 -0.12365991067923671        2.4614517989953628E-002
  -8.6228246624017305E-002   2.4614517989953628E-002
  -5.1122397316881146E-002   2.4614517989953628E-002
  -1.8055555027806092E-002   2.4614517989953628E-002
   4.4646725258515284E-003   5.4210289863752731E-002
   2.7932290283865804E-002   6.5577167925177593E-002
   5.2431788818125817E-002   7.3799140270830260E-002
   7.8059613832536179E-002   8.0283341195976937E-002
  0.10492657303002195        8.5555453741405454E-002
  0.13316085268511807        8.9869050661827349E-002
  0.16291185017415089        9.3359678318629374E-002
  0.19435523574322389        9.6100433191498899E-002
  0.22769950458716059        9.8125970297323284E-002
  0.26319478969811955        9.9443789468629445E-002
  0.30114487186592981       0.10003935450245131     
  0.34192374199524095        9.9877562733916916E-002
  0.38599945564491378        9.8901401048457183E-002
  0.43396873518569623        9.7027618116536221E-002
  0.48660942252607181        9.4138256938731013E-002
  0.54496280236544581        9.0065256508084945E-002
  0.61046898687981854        8.4561913820987586E-002
  0.68520265301886363        7.7246685234334284E-002
  0.77231436677424137        6.7481975387829074E-002
  0.87693940860551700        5.4078235514825240E-002
   1.0083333320708738        3.4437007653404988E-002
   1.1402777687784422        3.6134578924795525E-002
   1.2722222054860106        3.7952688904615492E-002
   1.4041666421935790        3.9900779803843253E-002
   1.5361110789011474        4.1988978451548718E-002
   1.6680555156087158        4.4228123140225971E-002
   1.7999999523162842        4.6629785487815940E-002
 -0.80000001192092896        5.0503811701663799E-002
 -0.68344022519590508        5.0503811701663799E-002
 -0.58852278216203391        5.0503811701663799E-002
 -0.50824926480410715        5.0503811701663799E-002
 -0.43854804722735063        5.0503811701663799E-002
 -0.37684022136189671        5.0503811701663799E-002
 -0.32138875660526145        5.0503811701663799E-002
 -0.27096774292076625        5.0503811701663799E-002
 -0.22467971664241054        5.0503811701663799E-002
 -0.18184780800825015        5.0503811701663799E-002
 -0.14194892940359982        5.0503811701663799E-002
 -0.10457046799770084        5.0503811701663799E-002
  -6.9381173716447947E-002   5.0503811701663799E-002
  -3.6111110055612183E-002   5.0503811701663799E-002
  -1.2093751246336732E-002   7.9282297361365828E-002
   1.2895501014539158E-002   9.0370785957428340E-002
   3.8940863740461823E-002   9.8582528287397428E-002
   6.6138229677289176E-002  0.10511136203189624     
   9.4597487538051542E-002  0.11047088354520526     
  0.12444542184572802       0.11490982579172934     
  0.15582938782005268       0.11856222334366009     
  0.18892216526299793       0.12150163558029446     
  0.22392821974651916       0.12376464067546727     
  0.26109211480697070       0.12536197151693895     
  0.30070995701740211       0.12628369604219714     
  0.34314514089021353       0.12650091985414541     
  0.38885101603577821       0.12596487191239142     
  0.43840368886842307       0.12460327616198610     
  0.49255169211676875       0.12231301537820621     
  0.55229383624657946       0.11894660827495213     
  0.61900709302744006       0.11428693266383133     
  0.69466904940551000       0.10799708595100543     
  0.78227401572046784        9.9511468066764516E-002
  0.88668935197724308        8.7767960292605723E-002
   1.0166666641417477        7.0426706767050068E-002
   1.1472222121708371        7.3770389608340675E-002
   1.2777777601999265        7.7334708986013342E-002
   1.4083333082290159        8.1134345536421848E-002
   1.5388888562581053        8.5184593524637392E-002
   1.6694444042871948        8.9501294495739139E-002
   1.7999999523162842        9.4100746650918471E-002
 -0.80000001192092896        7.7807169640046123E-002
 -0.68844050412730451        7.7807169640046123E-002
 -0.59717086925649387        7.7807169640046123E-002
 -0.51963009042517339        7.7807169640046123E-002
 -0.45200101834914547        7.7807169640046123E-002
 -0.39186592669801734        7.7807169640046123E-002
 -0.33759634926311888        7.7807169640046123E-002
 -0.28804299447908405        7.7807169640046123E-002
 -0.24236449190575737        7.7807169640046123E-002
 -0.19992627523270212        7.7807169640046123E-002
 -0.16023794935433719        7.7807169640046123E-002
 -0.12291269060132615        7.7807169640046123E-002
  -8.7639951340361094E-002   7.7807169640046123E-002
  -5.4166666294137578E-002   7.7807169640046123E-002
  -2.8652176128853814E-002  0.10575811190929005     
  -2.1412892630827754E-003  0.11634428539636490     
   2.5449937758160818E-002  0.12451378914196695     
   5.4216844722651085E-002  0.13110539933275342     
   8.4268401353461975E-002  0.13657262471338757     
  0.11572999042192278       0.14115914615007308     
  0.14874692499103837       0.14499740406558187     
  0.18348909441845626       0.14816140437797667     
  0.22015693465299341       0.15068966784300031     
  0.25898943977482647       0.15259619726959620     
  0.30027504213971112       0.15387570383915347     
  0.34436653986708732       0.15450552546583929     
  0.39170257661785474       0.15444511813270767     
  0.44283864284853675       0.15363308873057335     
  0.49849396210592589       0.15198092604741015     
  0.55962487061929722       0.14936123998619716     
  0.62754519974758627       0.14558553600960733     
  0.70413544642692771       0.14035972350892545     
  0.79223366533454076       0.13318662487901761     
  0.89643929600275385       0.12312420695137734     
   1.0249999967714150       0.10807459944173924     
   1.1541666560288932       0.11300118905210463     
   1.2833333152863713       0.11822705056684613     
   1.4124999745438496       0.12376826755987215     
   1.5416666338013278       0.12964093350932424     
   1.6708332930588059       0.13586095087276309     
   1.7999999523162842       0.14244379385411804     
 -0.80000001192092896       0.10668802716870203     
 -0.69344078238811424       0.10668802716870203     
 -0.60581895519115503       0.10668802716870203     
 -0.53101091451995208       0.10668802716870203     
 -0.46545398766675639       0.10668802716870203     
 -0.40689163001903400       0.10668802716870203     
 -0.35380393974736896       0.10668802716870203     
 -0.30511824374743224       0.10668802716870203     
 -0.26004926479739121       0.10668802716870203     
 -0.21800474003264286       0.10668802716870203     
 -0.17852696685232605       0.10668802716870203     
 -0.14125491074506791       0.10668802716870203     
 -0.10589872651558155       0.10668802716870203     
  -7.2222220111224367E-002  0.10668802716870203     
  -4.5210598790713249E-002  0.13376361327067382     
  -1.7178077524114134E-002  0.14401825331030851     
   1.1959013585133842E-002  0.15174255575130527     
   4.2295461366795184E-002  0.15841451031593695     
   7.3939316554110721E-002  0.16400932002576613     
  0.10701456016694791       0.16876535066874665     
  0.14166446311185629       0.17281333117543973     
  0.17805602430254608       0.17622766859671909     
  0.21638565006523636       0.17904881751924892     
  0.25688676502467289       0.18129405671423515     
  0.29984012732034676       0.18296274302113288     
  0.34558793868015869       0.18403842453338068     
  0.39455413681750717       0.18448870890588479     
  0.44727359623387675       0.18426291284376611     
  0.50443623129816262       0.18328678695357764     
  0.56695590400884677       0.18145239035066360     
  0.63608330532268320       0.17859868667063122     
  0.71360184217880274       0.17447225981244258     
  0.80219331361292079       0.16864034088221030     
  0.90618923872069523       0.16027302363984772     
   1.0333333282834953       0.14749707329337133     
   1.1611110989556268       0.15392959919018620     
   1.2888888696277583       0.16071763872108194     
   1.4166666402998898       0.16787529732652190     
   1.5444444109720212       0.17541577645980086     
   1.6722221816441527       0.18335105832056023     
   1.7999999523162842       0.19169155972279062     
 -0.80000001192092896       0.13733992116302549     
 -0.69844106199010325       0.13733992116302549     
 -0.61446704344541370       0.13733992116302549     
 -0.54239174166730586       0.13733992116302549     
 -0.47890696059273508       0.13733992116302549     
 -0.42191733737025860       0.13733992116302549     
 -0.37001153457883379       0.13733992116302549     
 -0.32219349759571952       0.13733992116302549     
 -0.27773404243245103       0.13733992116302549     
 -0.23608320968160607       0.13733992116302549     
 -0.19681598925581195       0.13733992116302549     
 -0.15959713580857676       0.13733992116302549     
 -0.12415750658818742       0.13733992116302549     
  -9.0277778771188366E-002  0.13733992116302549     
  -6.1769025893887997E-002  0.16348647236982911     
  -3.2214869818326643E-002  0.17338924861606964     
  -1.5319142064411928E-003  0.18050469896634111     
   3.0374074813374896E-002  0.18721614165984957     
   6.3610228984282854E-002  0.19295767692818946     
   9.8299127574312334E-002  0.19790450830297274     
  0.13458199933300979       0.20218549047245601     
  0.17262295272937286       0.20587534750934672     
  0.21261436446594190       0.20901642100064713     
  0.25478408971053801       0.21162923007508538     
  0.29940521238432910       0.21371773065987565     
  0.34680933782083484       0.21527159842011445     
  0.39740569778200768       0.21626644017958785     
  0.45170855080876404       0.21666200857908693     
  0.51037850208424018       0.21639783791295314     
  0.57428693936473285       0.21538461386887803     
  0.64462141318787869       0.21348734227899985     
  0.72306824046976315       0.21049080563629041     
  0.81215296456268682       0.20602216854049504     
  0.91593918405377528       0.19935509387439976     
   1.0416666620307495       0.18882302295734388     
   1.1680555437450053       0.19666832450292776     
   1.2944444254592611       0.20490220596004213     
   1.4208333071735169       0.21353396402957556     
   1.5472221888877726       0.22257098323290589     
   1.6736110706020284       0.23201836915741991     
   1.7999999523162842       0.24187857444678204     
 -0.80000001192092896       0.16999431252824906     
 -0.70344134025091309       0.16999431252824906     
 -0.62311512938007496       0.16999431252824906     
 -0.55377256576208456       0.16999431252824906     
 -0.49235992991034599       0.16999431252824906     
 -0.43694304069127532       0.16999431252824906     
 -0.38621912506308387       0.16999431252824906     
 -0.33926874686406777       0.16999431252824906     
 -0.29541881532408487       0.16999431252824906     
 -0.25416167448154681       0.16999431252824906     
 -0.21510500675380079       0.16999431252824906     
 -0.17793935595231852       0.16999431252824906     
 -0.14241628176340784       0.16999431252824906     
 -0.10833333258827516       0.16999431252824906     
  -7.8327448555747414E-002  0.19515113471327053     
  -4.7251658079358001E-002  0.20467905979961629     
  -1.5022838379468176E-002  0.21152516802292756     
   1.8452691457519002E-002  0.21772377037904411     
   5.3281144184931593E-002  0.22362994154460242     
   8.9583697319337449E-002  0.22878771811285697     
  0.12749953745382769       0.23332385866505534     
  0.16718988261346268       0.23731326878319625     
  0.20884307987818482       0.24080007919466098     
  0.25268141496038443       0.24380795811392891     
  0.29897029756496474       0.24634534926448878     
  0.34803073663390621       0.24840789477466710     
  0.40025725798166012       0.24997895013280452     
  0.45614350419410410       0.25102830516655517     
  0.51632077127647691       0.25150863817413405     
  0.58161797275428229       0.25134822737273788     
  0.65315951876297562       0.25043642624924467     
  0.73253463622163817       0.24859337332091824     
  0.82211261284106674       0.24550121894470039     
  0.92568912677171666       0.24052807807717630     
   1.0499999935428299       0.23219567965541421     
   1.1749999866717389       0.24134147623082078     
   1.2999999798006481       0.25088519266191445     
   1.4249999729295570       0.26082914179604050     
   1.5499999660584660       0.27117282260082209     
   1.6749999591873752       0.28191258692565691     
   1.7999999523162842       0.29304133429587831     
 -0.80000001192092896       0.20493126130677913     
 -0.70844161851172283       0.20493126130677913     
 -0.63176321531473612       0.20493126130677913     
 -0.56515338985686325       0.20493126130677913     
 -0.50581289922795691       0.20493126130677913     
 -0.45196874401229198       0.20493126130677913     
 -0.40242671554733389       0.20493126130677913     
 -0.35634399613241602       0.20493126130677913     
 -0.31310358821571865       0.20493126130677913     
 -0.27224013928148760       0.20493126130677913     
 -0.23339402425178962       0.20493126130677913     
 -0.19628157609606028       0.20493126130677913     
 -0.16067505693862827       0.20493126130677913     
 -0.12638888640536194       0.20493126130677913     
  -9.4885871217606846E-002  0.22902917194291003     
  -6.2288446340389360E-002  0.23815604359584944     
  -2.8513762552495159E-002  0.24471398255003360     
   6.5313081016630942E-003  0.25019741902388776     
   4.2952059385580332E-002  0.25628415827585860     
   8.0868267064362565E-002  0.26167110274165190     
  0.12041707557464561       0.26648261574211185     
  0.16175681249755253       0.27079358069036757     
  0.20507179529042777       0.27464975161021643     
  0.25057874021023091       0.27807778072371414     
  0.29853538274560038       0.28109040348215125     
  0.34925213544697764       0.28368896630807794     
  0.40310881818131256       0.28586419931848289     
  0.46057845757944410       0.28759537716464989     
  0.52226304046871364       0.28884748915954539     
  0.58894900614383183       0.28956512703212361     
  0.66169762433807255       0.28965998673577553     
  0.74200103197351319       0.28898433095680620     
  0.83207226111944665       0.28726988083006777     
  0.93543906948965816       0.28396960364334145     
   1.0583333250549103       0.27777495313643835     
   1.1819444295984727       0.28808628753083987     
   1.3055555341420348       0.29878094862968774     
   1.4291666386855972       0.30985285728794054     
   1.5527777432291596       0.32129250030276302     
   1.6763888477727220       0.33308671674596063     
   1.7999999523162842       0.34521854846688321     
 -0.80000001192092896       0.24249401438256105     
 -0.71344189677253267       0.24249401438256105     
 -0.64041130124939727       0.24249401438256105     
 -0.57653421395164195       0.24249401438256105     
 -0.51926586854556778       0.24249401438256105     
 -0.46699444733330864       0.24249401438256105     
 -0.41863430603158397       0.24249401438256105     
 -0.37341924540076427       0.24249401438256105     
 -0.33078836110735249       0.24249401438256105     
 -0.29031860408142834       0.24249401438256105     
 -0.25168304174977846       0.24249401438256105     
 -0.21462379623980204       0.24249401438256105     
 -0.17893383211384872       0.24249401438256105     
 -0.14444444022244873       0.24249401438256105     
 -0.11144429387946629       0.26545342739853017     
  -7.7325234601420711E-002  0.27414910309372487     
  -4.2004686725522128E-002  0.28039721444479265     
  -5.3900752541927999E-003  0.28528923969973613     
   3.2622974586229078E-002  0.29123828564666226     
   7.2152836809387694E-002  0.29686950705212029     
  0.11333461369546352       0.30197340420750607     
  0.15632374238164234       0.30662454427349090     
  0.20130051070267072       0.31087004851318761     
  0.24847606546007733       0.31473929084835695     
  0.29810046792623596       0.31824899218743985     
  0.35047353426004901       0.32140581204257757     
  0.40596037838096499       0.32420732677258385     
  0.46501341096478410       0.32664155634287079     
  0.52820530966095036       0.32868473944193682     
  0.59628003953338138       0.33029622257311020     
  0.67023572991316949       0.33140769961679567     
  0.75146742772538822       0.33189992527100992     
  0.84203190939782668       0.33154834076583761     
  0.94518901220759954       0.32988081195302787     
   1.0666666565669907       0.32574013248682282     
   1.1888888725252063       0.33705501941131943     
   1.3111110884834218       0.34871500114848558     
   1.4333333044416374       0.36070507824222015     
   1.5555555203998530       0.37300661452523642     
   1.6777777363580686       0.38559730972717404     
   1.7999999523162842       0.39845126132419817     
 -0.80000001192092896       0.28310958475848635     
 -0.71844217503334240       0.28310958475848635     
 -0.64905938718405842       0.28310958475848635     
 -0.58791503804642065       0.28310958475848635     
 -0.53271883786317875       0.28310958475848635     
 -0.48202015065432535       0.28310958475848635     
 -0.43484189651583405       0.28310958475848635     
 -0.39049449466911251       0.28310958475848635     
 -0.34847313399898627       0.28310958475848635     
 -0.30839706888136909       0.28310958475848635     
 -0.26997205924776729       0.28310958475848635     
 -0.23296601638354381       0.28310958475848635     
 -0.19719260728906915       0.28310958475848635     
 -0.16249999403953552       0.28310958475848635     
 -0.12800271654132572       0.30483797165341442     
  -9.2362022862452070E-002  0.31306740703517244     
  -5.5495610898549111E-002  0.31898051033202790     
  -1.7311458610048708E-002  0.32361023746683043     
   2.2293889786877810E-002  0.32889025902994790     
   6.3437406554412809E-002  0.33477589258873020     
  0.10625215181628143       0.34018402259520086     
  0.15089067226573216       0.34518848585136691     
  0.19752922611491364       0.34983739547815224     
  0.24637339070992378       0.35416245749907205     
  0.29766555310687159       0.35818392994794279     
  0.35169493307312044       0.36191323112124274     
  0.40881193858061748       0.36535406466166659     
  0.46944836435012416       0.36850223159565831     
  0.53414757885318709       0.37134389271625529     
  0.60361107292293092       0.37385127869506135     
  0.67877383548826642       0.37597337851828794     
  0.76093382347726335       0.37761541718131120     
  0.85199155767620671       0.37859034277745207     
  0.95493895492554093       0.37849081494326964     
   1.0749999880790710       0.37629324054189373     
   1.1958333154519400       0.38841730683625714     
   1.3166666428248086       0.40082561157143626     
   1.4374999701976776       0.41349469130365063     
   1.5583332975705466       0.42639774185588430     
   1.6791666249434154       0.43950480681545845     
   1.7999999523162842       0.45278305970914867     
 -0.80000001192092896       0.32731846562910027     
 -0.72344245597651058       0.32731846562910027     
 -0.65770747775791472       0.32731846562910027     
 -0.59929586824634951       0.32731846562910027     
 -0.54617181439752516       0.32731846562910027     
 -0.49704586203575790       0.32731846562910027     
 -0.45104949569451369       0.32731846562910027     
 -0.40756975309733878       0.32731846562910027     
 -0.36615791637747214       0.32731846562910027     
 -0.32647554337935469       0.32731846562910027     
 -0.28826108655675026       0.32731846562910027     
 -0.25130824636681981       0.32731846562910027     
 -0.21545139225906046       0.32731846562910027     
 -0.18055555754237673       0.32731846562910027     
 -0.14456114808581580       0.34770691597678788     
 -0.10739881918984573       0.35542886217932179     
  -6.8986542308672197E-002  0.36097731883888295     
  -2.9232848361033376E-002  0.36532154200960054     
   1.1964799446573346E-002  0.36974720645912629     
   5.4721971624116530E-002  0.37588945173062821     
   9.9169686137770496E-002  0.38160538968187552     
  0.14545759923529589       0.38696755312372549     
  0.19375793950408177       0.39202451441279657     
  0.24427071483180754       0.39680975670932300     
  0.29723063805420069       0.40134644572425671     
  0.35291633254140126       0.40565000100702708     
  0.41166350030996607       0.40972930343457259     
  0.47388332011455869       0.41358670701811079     
  0.54008985123310560       0.41721666777250355     
  0.61094211024515344       0.42060209597852227     
  0.68731194564356046       0.42370621678221715     
  0.77040022430730903       0.42645436312127266     
  0.86195121129735863       0.42869055183497229     
  0.96468890287375952       0.43006228846045058     
   1.0833333240614991       0.42966317121567849     
   1.2027777621039633       0.44236300187337896     
   1.3222222001464274       0.45526563055646352     
   1.4416666381888916       0.46834065122079771     
   1.5611110762313558       0.48155511994968708     
   1.6805555142738200       0.49487393951776876     
   1.7999999523162842       0.50826031744178291     
 -0.80000001192092896       0.37581863925009606     
 -0.72844273155496198       0.37581863925009606     
 -0.66635555905338073       0.37581863925009606     
 -0.61067668623597804       0.37581863925009606     
 -0.55962477649840059       0.37581863925009606     
 -0.51207155729635878       0.37581863925009606     
 -0.46725707748433409       0.37581863925009606     
 -0.42464499320580901       0.37581863925009606     
 -0.38384267978225395       0.37581863925009606     
 -0.34455399848125068       0.37581863925009606     
 -0.30655009424374502       0.37581863925009606     
 -0.26965045667102733       0.37581863925009606     
 -0.23371015763951003       0.37581863925009606     
 -0.19861110167370910       0.37581863925009606     
 -0.16111956186504459       0.39473708732895274     
 -0.12243559938451479       0.40190228310445858     
  -8.2477459244603077E-002  0.40705069739988836     
  -4.1154225321760524E-002  0.41108170314562459     
   1.6357201881752881E-003  0.41446915869315287     
   4.6006546044463054E-002  0.42085743794921976     
   9.2087228057917261E-002  0.42687142396154110     
  0.14002453203391182       0.43258155989505104     
  0.18998665693939953       0.43803613881829939     
  0.24216804120961669       0.44326965378028754     
  0.29679572346814281       0.44830732178458321     
  0.35413773069926324       0.45316755866493652     
  0.41451505897992236       0.45786320051942409     
  0.47831827112080422       0.46240162840560395     
  0.54603211723766054       0.46678364596185901     
  0.61827313970203002       0.47100030674147414     
  0.69585004663846040       0.47502569987200122     
  0.77986661498101340       0.47880067660365461     
  0.87191085423296655       0.48219389550735098     
  0.97443884036142381       0.48489837113530387     
   1.0916666511032318       0.48611063590828441     
   1.2097222013054072       0.49910544111817157     
   1.3277777515075826       0.51220451843161063     
   1.4458333017097580       0.52537313388669149     
   1.5638888519119334       0.53857524235250909     
   1.6819444021141088       0.55177399551006023     
   1.7999999523162842       0.56493228245823390     
 -0.80000001192092896       0.42953378150296939     
 -0.73344301249813015       0.42953378150296939     
 -0.67500364962723702       0.42953378150296939     
 -0.62205751643590701       0.42953378150296939     
 -0.57307775303274699       0.42953378150296939     
 -0.52709726867779128       0.42953378150296939     
 -0.48346467666301374       0.42953378150296939     
 -0.44172025163403528       0.42953378150296939     
 -0.40152746216073976       0.42953378150296939     
 -0.36263247297923623       0.42953378150296939     
 -0.32483912155272793       0.42953378150296939     
 -0.28799268665430333       0.42953378150296939     
 -0.25196894260950131       0.42953378150296939     
 -0.21666666517655031       0.42953378150296939     
 -0.17767799340953463       0.44682416569901723     
 -0.13747239571190845       0.45337274660174226     
  -9.5968390654726163E-002  0.45807810408124355     
  -5.3075615072745164E-002  0.46176221377934029     
  -8.6933701521291762E-003  0.46473160365596328     
   3.7291111114166775E-002  0.47054031828052878     
   8.5004762379406323E-002  0.47682075807109559     
  0.13459145900347558       0.48284614558136213     
  0.18621537032856766       0.48866348984885322     
  0.24006536533150041       0.49430725990051505     
  0.29636080841547197       0.49980359200210589     
  0.35535913016754406       0.50517260438170009     
  0.41736662070927100       0.51042956352721935     
  0.48275322688523875       0.51558503947051770     
  0.55197438961757905       0.52064392696669759     
  0.62560417702425253       0.52560260754353083     
  0.70438815679375433       0.53044246623251190     
  0.78933301581105908       0.53511527514427348     
  0.88187050785411858       0.53950830219564039     
  0.98418878830964240       0.54335199988809002     
   1.0999999870856598       0.54593487033027821     
   1.2166666479574306       0.55888595620012183     
   1.3333333088292012       0.57183127203054662     
   1.4499999697009720       0.58473539335924973     
   1.5666666305727428       0.59756304567275575     
   1.6833332914445136       0.61027962009755632     
   1.7999999523162842       0.62285167264922303     
 -0.80000001192092896       0.48972185567915405     
 -0.73844328807658155       0.48972185567915405     
 -0.68365173092270315       0.48972185567915405     
 -0.63343833442553543       0.48972185567915405     
 -0.58653071513362232       0.48972185567915405     
 -0.54212296393839210       0.48972185567915405     
 -0.49967225845283425       0.48972185567915405     
 -0.45879549174250550       0.48972185567915405     
 -0.41921222556552157       0.48972185567915405     
 -0.38071092808113216       0.48972185567915405     
 -0.34312812923972269       0.48972185567915405     
 -0.30633489695851079       0.48972185567915405     
 -0.27022770798995094       0.48972185567915405     
 -0.23472220930788268       0.48972185567915405     
 -0.19423640718876345       0.50518798649650354     
 -0.15250917590657750       0.51104564748084957     
 -0.10945930759065702       0.51525455767597383     
  -6.4996992033472312E-002  0.51854996869114689     
  -1.9022449410527234E-002  0.52120606769732525     
   2.8575685534513284E-002  0.52611616430260644     
   7.7922304299553088E-002  0.53259475877183005     
  0.12915839180209149       0.53886427472837284     
  0.18244408776388543       0.54496909745570066     
  0.23796269170930959       0.55094231729654120     
  0.29592589382941409       0.55680954305821062     
  0.35658052832540604       0.56259099171112292     
  0.42021817937922723       0.56830253566221201     
  0.48718817789148428       0.57395582018767433     
  0.55791665562213399       0.57955734923996982     
  0.63293520648112900       0.58510588870344227     
  0.71292625778865426       0.59058660292013554     
  0.79879940648476344       0.59595796798161216     