VARIABLES = "X" "Y" "J"
ZONE I=  41    J=   19
 -0.80000001192092896        0.0000000000000000        1.9181704389089975E-003
 -0.72000001072883602        0.0000000000000000        1.9244783609419843E-003
 -0.64000000953674319        0.0000000000000000        1.9314617117135988E-003
 -0.56000000834465025        0.0000000000000000        1.9399016936708100E-003
 -0.48000000715255736        0.0000000000000000        1.9509292695274621E-003
 -0.40000000596046448        0.0000000000000000        1.9664276977028796E-003
 -0.32000000476837154        0.0000000000000000        1.9899895078750295E-003
 -0.24000000357627871        0.0000000000000000        2.0296540768843202E-003
 -0.16000000238418577        0.0000000000000000        2.1079155178581580E-003
  -8.0000001192092829E-002   0.0000000000000000        2.3134477697151659E-003
   0.0000000000000000        0.0000000000000000        2.7416983417011278E-003
   5.0000000000000003E-002   4.4602089554664957E-002   1.0854145000380620E-003
  0.10000000000000001        5.8722143818967620E-002   9.7270639659934293E-004
  0.15000000000000002        6.6983760864784622E-002   9.6105239849407682E-004
  0.20000000000000001        7.1846641918802551E-002   9.6430734717864268E-004
  0.25000000000000000        7.4334200719891608E-002   9.7356762733073385E-004
  0.30000000000000004        7.5019308835821752E-002   9.8597896682440199E-004
  0.35000000000000003        7.4275505767019634E-002   1.0002272532253238E-003
  0.40000000000000002        7.2368894454773111E-002   1.0155950701965807E-003
  0.45000000000000001        6.9499149665645854E-002   1.0316677438807749E-003
  0.50000000000000000        6.5820350277604772E-002   1.0482207585084777E-003
  0.55000000000000004        6.1452585138372533E-002   1.0651749939693820E-003
  0.60000000000000009        5.6488883819410578E-002   1.0825856778357288E-003
  0.65000000000000002        5.0999586638980257E-002   1.1006562718405312E-003
  0.70000000000000007        4.5035223344168644E-002   1.1197821833657871E-003
  0.75000000000000000        3.8628479001300155E-002   1.1406464215533603E-003
  0.80000000000000004        3.1795577738765200E-002   1.1644302401664973E-003
  0.85000000000000009        2.4537282123169087E-002   1.1933350967541106E-003
  0.90000000000000002        1.6839631126404589E-002   1.2321740870742876E-003
  0.95000000000000007        8.6744956946254725E-003   1.2949220422966978E-003
   1.0000000000000000        4.1681862848033020E-009   1.8367921604289569E-003
   1.0799999952316284        0.0000000000000000        2.0529641196698118E-003
   1.1599999904632567        0.0000000000000000        1.9960558394922327E-003
   1.2399999856948853        0.0000000000000000        1.9687808123774716E-003
   1.3199999809265137        0.0000000000000000        1.9527752557029427E-003
   1.3999999761581421        0.0000000000000000        1.9423038550206611E-003
   1.4799999713897705        0.0000000000000000        1.9349475867498232E-003
   1.5599999666213988        0.0000000000000000        1.9294707177236468E-003
   1.6399999618530274        0.0000000000000000        1.9251482428809441E-003
   1.7199999570846556        0.0000000000000000        1.9215007470403764E-003
   1.7999999523162842        0.0000000000000000        1.9181702959941722E-003
 -0.80000001192092896        2.4614517989953628E-002   2.0078137339813468E-003
 -0.72049059313152253        2.4694464908099206E-002   2.0142006828433485E-003
 -0.64098508505342500        2.4782795107895224E-002   2.0212459232308603E-003
 -0.56148477933116880        2.4889157995283569E-002   2.0297022883599032E-003
 -0.48199146599577614        2.5027392426618566E-002   2.0406642147421977E-003
 -0.40250744502514224        2.5220225651931497E-002   2.0559247512920847E-003
 -0.32303553420920661        2.5510130925814681E-002   2.0788108381047683E-003
 -0.24357903665034478        2.5989070868905634E-002   2.1164117748750885E-003
 -0.16414178219757647        2.6899863972901547E-002   2.1868279769133494E-003
  -8.4730581394207194E-002   2.9105308124848659E-002   2.3502291106846833E-003
  -5.4049704737157943E-003   3.7408255078848922E-002   2.3390372588905205E-003
   4.5332179875135145E-002   6.4812702269626168E-002   1.1833304096751172E-003
   9.6084352100472531E-002   7.8242960461987254E-002   1.0801452421202152E-003
  0.14673992238274572        8.6565107113774770E-002   1.0529666970780581E-003
  0.19732507581333103        9.1647303760384713E-002   1.0475820445636761E-003
  0.24786015845529860        9.4406505391476159E-002   1.0517976551402059E-003
  0.29835923970985284        9.5383876375747689E-002   1.0610954509398510E-003
  0.34883230119667330        9.4940182535543274E-002   1.0733862893215628E-003
  0.39928679300423919        9.3335513351723437E-002   1.0875600145725955E-003
  0.44972860602028764        9.0766744466038329E-002   1.1029868685537496E-003
  0.50016269977653149        8.7387180179755164E-002   1.1193188884370245E-003
  0.55059354198039834        8.3317810543507134E-002   1.1364059160209449E-003
  0.60102545433934029        7.8654316324207177E-002   1.1542653400118934E-003
  0.65146292990112376        7.3471868635387211E-002   1.1730858663408046E-003
  0.70191098124613271        6.7828929629940679E-002   1.1932645825909701E-003
  0.75237559674811683        6.1771059083513512E-002   1.2154934632111754E-003
  0.80286444159957038        5.5336181605134760E-002   1.2409416156938457E-003
  0.85338810787005792        4.8564791360010531E-002   1.2716544762159917E-003
  0.90396276156359900        4.1526713291748757E-002   1.3114938940315605E-003
  0.95461744039916419        3.4415774455091225E-002   1.3683729156840649E-003
   1.0054257311069938        2.8008565386836985E-002   1.8531445563321992E-003
   1.0848361071748671        2.6215436553260692E-002   2.1315934823575278E-003
   1.1642367395311986        2.5570610526450488E-002   2.0818842064981675E-003
   1.2436562494935728        2.5244389185385914E-002   2.0565422344501682E-003
   1.3230967736269721        2.5048353804252660E-002   2.0413348471616686E-003
   1.4025553073098043        2.4918474164324321E-002   2.0312836369765076E-003
   1.4820280912841375        2.4826498461778784E-002   2.0241692250792566E-003
   1.5615116576968806        2.4757622810121428E-002   2.0188274462802913E-003
   1.6410030524130175        2.4703022386691451E-002   2.0145659213763201E-003
   1.7204998240846423        2.4656799039280076E-002   2.0109228800336658E-003
   1.7999999523162842        2.4614517989953628E-002   2.0075721330032503E-003
 -0.80000001192092896        5.0503811701663799E-002   2.1012363995497334E-003
 -0.72099918032338750        5.0665901325771256E-002   2.1076615105699759E-003
 -0.64200621010734660        5.0844638358266463E-002   2.1147178471060788E-003
 -0.56302371683096608        5.1059090362033724E-002   2.1231167186814988E-003
 -0.48405531176779037        5.1336338695065480E-002   2.1338947736779129E-003
 -0.40510564748230876        5.1720210897705406E-002   2.1487086424663445E-003
 -0.32618049706301239        5.2290786747711829E-002   2.1705039167143063E-003
 -0.24728690072620535        5.3214932309619579E-002   2.2050837390113799E-003
 -0.16843405972005226        5.4901568730411979E-002   2.2650070687481134E-003
  -8.9641260006502479E-002   5.8585039118341918E-002   2.3769866119253144E-003
  -1.1014119429029674E-002   6.8911834905543728E-002   2.0818602011295068E-003
   4.0525986043904290E-002   8.7428792499995175E-002   1.2972379133807156E-003
   9.1996212771665614E-002   9.9611322947400688E-002   1.1906050327840033E-003
  0.14331026340203465       0.10770053086801697        1.1504485127924451E-003
  0.19449672278993443       0.11285895509064306        1.1368117423323663E-003
  0.24558773201557624       0.11581228792542993        1.1358725097066953E-003
  0.29660836852357209       0.11703655886512994        1.1418723997347758E-003
  0.34757747515132698       0.11686553423103213        1.1520404865097611E-003
  0.39850956296327839       0.11554649459162199        1.1648909313110936E-003
  0.44941632321822078       0.11326995202526888        1.1795782381527006E-003
  0.50030771770398796       0.11018644581227136        1.1956266223064110E-003
  0.55119279246640773       0.10641672665448168        1.2128100510352684E-003
  0.60208034539293187       0.10205849115927522        1.2311030539197605E-003
  0.65297955610096192        9.7191431606975270E-002   1.2506733573844221E-003
  0.70390068850414411        9.1881840966746842E-002   1.2719097415911061E-003
  0.75485601797208468        8.6188105259837069E-002   1.2954934304818034E-003
  0.80586125680160592        8.0169398783154600E-002   1.3225377019124036E-003
  0.85693808693779694        7.3903153038894512E-002   1.3548359197170263E-003
  0.90811945681494366        6.7527441825121881E-002   1.3951944529358004E-003
  0.95946324428164520        6.1359392962395828E-002   1.4470386558119012E-003
   1.0110959618933775        5.6225334758219454E-002   1.8860837958480541E-003
   1.0898472929508962        5.3537640409554166E-002   2.2099979954941602E-003
   1.1686217110043007        5.2381043144141014E-002   2.1699889909950459E-003
   1.2474407161830376        5.1758033498394709E-002   2.1473380603755305E-003
   1.3263030966652989        5.1374030914574986E-002   2.1332425380486838E-003
   1.4052017907221952        5.1116297387522276E-002   2.1237715585692898E-003
   1.4841290608872655        5.0932301295072771E-002   2.1169925978288626E-003
   1.5630779345684276        5.0793720422258992E-002   2.1118453862563778E-003
   1.6420425021688281        5.0683380606047573E-002   2.1076843973976043E-003
   1.7210178588457301        5.0589674617851459E-002   2.1040728052042581E-003
   1.7999999523162842        5.0503811701663799E-002   2.1007230792666068E-003
 -0.80000001192092896        7.7807169640046123E-002   2.2046350070407329E-003
 -0.72152712905283378        7.8052841416782356E-002   2.2110177218460287E-003
 -0.64306608775618312        7.8323091645040172E-002   2.2179843616490689E-003
 -0.56462088763587936        7.8645894667732863E-002   2.2261784675002582E-003
 -0.48619702846262819        7.9060466324968603E-002   2.2365359568619681E-003
 -0.40780163176900613        7.9629040380867405E-002   2.2504893828466229E-003
 -0.32944369393143036        8.0462013585940143E-002   2.2704089926215091E-003
 -0.25113469004363681        8.1778659150796157E-002   2.3003869595260439E-003
 -0.17289101672607352        8.4072671986700265E-002   2.3470176015003225E-003
  -9.4747383078152836E-002   8.8612435192536226E-002   2.4133752200870390E-003
  -1.6833958831048726E-002   9.8850638824451234E-002   2.0226789218089334E-003
   3.5539347883189014E-002  0.11226732764998391        1.4128044731093413E-003
   8.7726933341151656E-002  0.12292879026659551        1.3072670634485797E-003
  0.13970612197980251       0.13055135508521434        1.2579889147822482E-003
  0.19150974751182515       0.13564599183842285        1.2368250224618054E-003
  0.24317735177134034       0.13871023877512498        1.2306267496998971E-003
  0.29474240087869735       0.14013033848545087        1.2330603879621060E-003
  0.34623136026981138       0.14020007905148207        1.2408471211083582E-003
  0.39766526737014884       0.13914704934726013        1.2521651956116067E-003
  0.44906141914057418       0.13715156469051243        1.2659567233998090E-003
  0.50043475332839615       0.13435915788969086        1.2816118206253266E-003
  0.55179895759362640       0.13088897727702259        1.2988197478728957E-003
  0.60316742365078957       0.12683987347982545        1.3175017349705638E-003
  0.65455417545180450       0.12229546078808129        1.3377906449706502E-003
  0.70597492175158694       0.11732929517175768        1.3600448425517245E-003
  0.75744845207507061       0.11201164015069515        1.3848941500749156E-003
  0.80899877382409591       0.10642047958419996        1.4133157107276300E-003
  0.86065885274598430       0.10066259118827799        1.4467008072827051E-003
  0.91247812277469709        9.4918127707119215E-002   1.4866678941877637E-003
  0.96453975115403157        8.9535256325463358E-002   1.5334747290098509E-003
   1.0170025942904004        8.5176477415261076E-002   1.9477453339168779E-003
   1.0950463092868457        8.2084023354408953E-002   2.2951899449953315E-003
   1.1731661343520010        8.0547937457677160E-002   2.2657512591360948E-003
   1.2513626136114080        7.9668009339509099E-002   2.2468097838560376E-003
   1.3296266077329471        7.9109723167796228E-002   2.2343655989089839E-003
   1.4079457242165949        7.8729044366346437E-002   2.2257671282289457E-003
   1.4863078982039459        7.8454549020409117E-002   2.2194945914149585E-003
   1.5647025616856294        7.8246339124938460E-002   2.2146488470734947E-003
   1.6431208271525204        7.8079681297447023E-002   2.2106587796459189E-003
   1.7215553248520339        7.7937614080571732E-002   2.2071271911851447E-003
   1.7999999523162842        7.7807169640046123E-002   2.2038172090626425E-003
 -0.80000001192092896       0.10668802716870203        2.3197483094875024E-003
 -0.72207609194896738       0.10701774068776486        2.3259884891345737E-003
 -0.64416800371921934       0.10737938998930233        2.3327424072339125E-003
 -0.56628121501455853       0.10780904419876394        2.3405573622769758E-003
 -0.48842320949915219       0.10835643803228448        2.3502262654211052E-003
 -0.41060373643659609       0.10909858646318310        2.3628815575725479E-003
 -0.33283534400525866       0.11016726334660171        2.3801866772008686E-003
 -0.25513465239189048       0.11180998447594245        2.4043922349465396E-003
 -0.17752651990821067       0.11453514609910016        2.4369439615089354E-003
 -0.10006067831449161       0.11945715339665992        2.4677811996372773E-003
  -2.2876063201264597E-002  0.12885748420796281        2.0469066559855469E-003
   3.0344038064330194E-002  0.13913125309210606        1.5297818379976270E-003
   8.3262949436604630E-002  0.14827740741954890        1.4311547897731653E-003
  0.13591930308195890       0.15528030952779204        1.3764793417534020E-003
  0.18835718391928657       0.16018813360875156        1.3489524982171223E-003
  0.24062256964855644       0.16328022883141852        1.3376615032170763E-003
  0.29275561218024004       0.16484160431706138        1.3363842738392403E-003
  0.34478928511936907       0.16511652306080343        1.3415795449092988E-003
  0.39675056004122133       0.16430678106016275        1.3511704050049650E-003
  0.44866206686789628       0.16257873413978238        1.3639094742623273E-003
  0.50054362745415415       0.16007054810085347        1.3790553024328792E-003
  0.55241358200500557       0.15689822890173538        1.3962072674043461E-003
  0.60428998789745869       0.15316069745143987        1.4152239694608677E-003
  0.65619182285502931       0.14894458350407774        1.4361894666478710E-003
  0.70814037032021671       0.14432964875502341        1.4594099306855085E-003
  0.76016105901607511       0.13939621945467692        1.4854283807866769E-003
  0.81228624601931143       0.13423706337336103        1.5150324926545603E-003
  0.86455994613837117       0.12897823787895177        1.5491697586371628E-003
  0.91704673369573642       0.12381627708833751        1.5884820141523492E-003
  0.96984963622769516       0.11907523912192874        1.6316777477030418E-003
   1.0231442619066862       0.11523544701269954        2.0313365330050792E-003
   1.1004447586290895       0.11201293485433027        2.3904893652728341E-003
   1.1778819922617609       0.11021654601320331        2.3712108654306910E-003
   1.2554324862279840       0.10912552743208713        2.3566526646949244E-003
   1.3330763089614448       0.10841148886272621        2.3463512120383977E-003
   1.4107946132593265       0.10791570345206307        2.3389300951425704E-003
   1.4885706305527282       0.10755397432707405        2.3333555506165095E-003
   1.5663900834910132       0.10727728864560336        2.3289365272093810E-003
   1.6442410747215017       0.10705443958952503        2.3252027026331541E-003
   1.7221137553056105       0.10686363784249540        2.3218117884526426E-003
   1.7999999523162842       0.10668802716870203        2.3185909743691684E-003
 -0.80000001192092896       0.13733992116302549        2.4487452026821172E-003
 -0.72264807687960864       0.13775289330114848        2.4547203903781249E-003
 -0.64531594184777252       0.13820432455247023        2.4611142050461922E-003
 -0.56801064346545171       0.13873726107054371        2.4683483026673066E-003
 -0.49074175886378046       0.13940987926234963        2.4770346012234217E-003
 -0.41352183384488977       0.14030965910134671        2.4879495324426678E-003
 -0.33636727383005938       0.14158010781291089        2.5019942830967687E-003
 -0.25930035670291429       0.14347445989444865        2.5197031433838793E-003
 -0.18235479211188699       0.14646486135693987        2.5387776277927786E-003
 -0.10559291864745438       0.15143663615538727        2.5438848661190655E-003
  -2.9153253735812373E-002  0.15977830929863512        2.1187050703619244E-003
   2.4919282634918744E-002  0.16797621690205344        1.6542143510053827E-003
   7.8588198585678185E-002  0.17575401608861466        1.5646426595229840E-003
  0.13193849833676494       0.18206131046295357        1.5075301767883320E-003
  0.18502988344503596       0.18668519795370314        1.4749829829523002E-003
  0.23791545524340546       0.18972786442550524        1.4589864934853548E-003
  0.29064123725540708       0.19137517353794373        1.4539848595706934E-003
  0.34324586023407438       0.19181715281227205        1.4564413134678736E-003
  0.39576166011344927       0.19122529816630254        1.4641348576662399E-003
  0.44821628066977426       0.18974870086315687        1.4756705850101732E-003
  0.50063427797864013       0.18751585446055452        1.4901881439754838E-003
  0.55303859965501423       0.18463797921104019        1.5071967956784942E-003
  0.60545198496261787       0.18121278673275509        1.5264854194457268E-003
  0.65789841153615147       0.17732871749398876        1.5480766462078689E-003
  0.71040478150950948       0.17307022415298781        1.5722054536240454E-003
  0.76300315113317263       0.16852518146114123        1.5993025401540759E-003
  0.81573403452567728       0.16379620756207233        1.6299447374295418E-003
  0.86865178067135340       0.15901843294160464        1.6646785421530327E-003
  0.92183391520316849       0.15438527639477739        1.7035010758309184E-003
  0.97539748821407424       0.15017326271994233        1.7446922944066986E-003
   1.0295241759324782       0.14671717483771379        2.1347026458932660E-003
   1.1060543957821845       0.14352158575733687        2.4988862647378285E-003
   1.1827823341355750       0.14156617239540495        2.4888176575566939E-003
   1.2596624136752628       0.14031216980538058        2.4790225362385943E-003
   1.3366627808583851       0.13946479487254415        2.4712868730278792E-003
   1.4137573987948016       0.13886459587363162        2.4653491656009847E-003
   1.4909244942315674       0.13842078637496183        2.4606814043207229E-003
   1.5681459826606097       0.13807803068449045        2.4568328009571291E-003
   1.6454069327158154       0.13779998619882819        2.4534568203062571E-003
   1.7226950088047739       0.13756072964779356        2.4502810772348005E-003
   1.7999999523162842       0.13733992116302549        2.4472113602880033E-003
 -0.80000001192092896       0.16999431252824906        2.5943700548207698E-003
 -0.72324551634145307       0.17048821119232724        2.5999327029868373E-003
 -0.64651471880865730       0.17102598947163525        2.6057928718181901E-003
 -0.56981633040524560       0.17165626140632362        2.6122179103478696E-003
 -0.49316212542267662       0.17244319594791832        2.6196087336183330E-003
 -0.41656758498075447       0.17348004958656066        2.6283562542386034E-003
 -0.34005317200400953       0.17491268227045167        2.6386204637892617E-003
 -0.26364700169707511       0.17698153247726708        2.6495234020079915E-003
 -0.18739117492762344       0.18009193708222371        2.6565059034957326E-003
 -0.11135746766994566       0.18489474856541541        2.6437529548613914E-003
  -3.5679521997445555E-002  0.19217000487393407        2.2247192496441842E-003
   1.9247266936056020E-002  0.19890006540536134        1.7922344518478729E-003
   7.3685147984549088E-002  0.20549765864613651        1.7112200610856932E-003
  0.12774954033342906       0.21109317600584684        1.6536462097905106E-003
  0.18151620805115823       0.21536508331406318        1.6173705920220559E-003
  0.23504619031103971       0.21829129233347047        1.5971988664216816E-003
  0.28839112428726260       0.21997118219087863        1.5885799142476426E-003
  0.34159472174735117       0.22054099607792632        1.5882206702019903E-003
  0.39469418323483485       0.22013958541544587        1.5938806396060773E-003
  0.44772182805754929       0.21889629560820836        1.6040745261671557E-003
  0.50070674667972548       0.21692789467208462        1.6178458781331195E-003
  0.55367638928704455       0.21433916895023750        1.6346194629715696E-003
  0.60665812657581430       0.21122519540516727        1.6541107111155196E-003
  0.65968090161810289       0.20767476264612147        1.6762709589982509E-003
  0.71277716887542231       0.20377512776285545        1.7012498405262781E-003
  0.76598543095988292       0.19961875647014499        1.7293523363866741E-003
  0.81935388703100243       0.19531299679719907        1.7609513282232576E-003
  0.87294605758763033       0.19099332224084939        1.7962811014656365E-003
  0.92684972525825682       0.18683796975527048        1.8350023269379030E-003
  0.98119058114571034       0.18307179381098862        1.8755516759386449E-003
   1.0361493815990888       0.17992628415128004        2.2582568326587559E-003
   1.1118881479275293       0.17684863593041159        2.6234943030131901E-003
   1.1878817054766972       0.17481719334417128        2.6215500354595514E-003
   1.2640663082139914       0.17344784671496585        2.6166709927324425E-003
   1.3403984673430553       0.17249240699808283        2.6118463082512016E-003
   1.4168447262802617       0.17180116198549597        2.6076889575243145E-003
   1.4933781690199670       0.17128241802749003        2.6041498276139379E-003
   1.5699768660309690       0.17087742743806414        2.6010332918797565E-003
   1.6466228578641533       0.17054623521677734        2.5981341810800375E-003
   1.7233013348988104       0.17025963056208790        2.5952637027881523E-003
   1.7999999523162842       0.16999431252824906        2.5924214980764439E-003
 -0.80000001192092896       0.20493126130677913        2.7601500872655974E-003
 -0.72387135547531167       0.20550185199791779        2.7651248358606306E-003
 -0.64777015513307523       0.20612037832891539        2.7702502940134218E-003
 -0.57170689057590429       0.20683935876225024        2.7756135052589954E-003
 -0.49569560550570496       0.20772626344234005        2.7813856388210433E-003
 -0.41975478155097046       0.20887542618055174        2.7875719765007435E-003
 -0.34390896583995578       0.21042678968886891        2.7936779368061986E-003
 -0.26819190160331102       0.21259475330999117        2.7978081426635547E-003
 -0.19265296778488494       0.21570489148724639        2.7944065254806210E-003
 -0.11737023289354506       0.22020369799986186        2.7695843209261293E-003
  -4.2470783330918402E-002  0.22648615724422991        2.3607341632722206E-003
   1.3310241418766508E-002  0.23211225394756529        1.9494671229037680E-003
   6.8534779472493298E-002  0.23770937962798755        1.8753757754010310E-003
  0.12333546111986846       0.24261617298100208        1.8184090411799466E-003
  0.17780171683351745       0.24649557586692022        1.7794905189576107E-003
  0.23200262372411148       0.24925128304520425        1.7557306907450511E-003
  0.28599531970892811       0.25091487468043971        1.7436968959821807E-003
  0.33982820483034920       0.25157373178099596        1.7405154746119953E-003
  0.39354291757558330       0.25133408608211444        1.7440458861569699E-003
  0.44717610818714809       0.25030415399432981        1.7527781040700345E-003
  0.50076115571998103       0.24858736699864609        1.7656910112080564E-003
  0.55432984280656894       0.24628053909952721        1.7821366769811633E-003
  0.60791404133164639       0.24347461460535488        1.8017576617279827E-003
  0.66154752527129479       0.24025708121760639        1.8244281722776348E-003
  0.71526809979334005       0.23671587012750714        1.8502045611324741E-003
  0.76912033751797881       0.23294492558569482        1.8792645981608005E-003
  0.82315936684510360       0.22905160870732411        1.9118036658303604E-003
  0.87745635957543100       0.22516522968107974        1.9478438073634399E-003
  0.93210647553847259       0.22144303313305086        1.9869332289538326E-003
  0.98723947464426975       0.21806330798672022        2.0278838494886702E-003
   1.0430307182072251       0.21518802862627456        2.4042318133883005E-003
   1.1179610383424112       0.21228178679677023        2.7679576839172615E-003
   1.1931967296654398       0.21024082950889728        2.7731139884299852E-003
   1.2686603474766018       0.20880146612573158        2.7731440234682442E-003
   1.3442980645129556       0.20776509841070076        2.7714967747427314E-003
   1.4200692991154822       0.20699859264621687        2.7693989767443097E-003
   1.4959420817744604       0.20641411820228339        2.7672186702016872E-003
   1.5718907039909933       0.20595233319046791        2.7650126846466665E-003
   1.6478942407456927       0.20557129595726120        2.7627277801472597E-003
   1.7239354582182418       0.20523948061159583        2.7602700727550346E-003
   1.7999999523162842       0.20493126130677913        2.7577484590056828E-003
 -0.80000001192092896       0.24249401438256105        2.9506976223824268E-003
 -0.72452916381304733       0.24313475484503080        2.9548787319925093E-003
 -0.64908929283945960       0.24382588840464400        2.9590400817281507E-003
 -0.57369270858685506       0.24462198137859595        2.9630671420494527E-003
 -0.49835573498215530       0.24559103237744023        2.9668962833044902E-003
 -0.42309980310110606       0.24682410347718123        2.9701757838948416E-003
 -0.34795335003674921       0.24844868531149406        2.9718898133218557E-003
 -0.27295515763625167       0.25064540907933969        2.9695326527677196E-003
 -0.19816035420110700       0.25366017238551591        2.9574738064815499E-003
 -0.12365053346136803       0.25777824346353490        2.9246199047035649E-003
  -4.9545899957879218E-002  0.26316613619483931        2.5273780864120744E-003
   7.0885224980399486E-003  0.26791830201795452        2.1317310126995866E-003
   6.3115907371209673E-002  0.27266848251755366        2.0627121918272437E-003
  0.11867622493492735       0.27693117246512083        2.0067345359456017E-003
  0.17386874676994893       0.28040055639672878        1.9659787673133237E-003
  0.22876974674837700       0.28294562583825122        1.9391979500547867E-003
  0.28344156316443331       0.28455040736654019        1.9240128651540434E-003
  0.33793693017016074       0.28526144217421207        1.9180655318940998E-003
  0.39230153079085961       0.28515455994945882        1.9194135572726729E-003
  0.44657598753439204       0.28431669273192484        1.9265882777981418E-003
  0.50079767119970842       0.28283691991196935        1.9385411030066913E-003
  0.55500245117470115       0.28080277225108563        1.9545689355397518E-003
  0.60922647409844610       0.27829958228299606        1.9742469247582368E-003
  0.66350808875015410       0.27541179851990594        1.9973712543510007E-003
  0.71789009056300201       0.27222580420822762        2.0239037505935193E-003
  0.77242253480683198       0.26883402245074089        2.0539032801840866E-003
  0.82716645933107724       0.26533989166113309        2.0874237467860711E-003
  0.88219892178917414       0.26186233570524947        2.1243629872995263E-003
  0.93761962630665618       0.25853611675153659        2.1642898748188231E-003
  0.99355868578898676       0.25550116230947589        2.2064099125971180E-003
   1.0501832107660771       0.25287362430755217        2.5765336949550121E-003
   1.1242911290378375       0.25017062545086355        2.9368747315221171E-003
   1.1987468541150745       0.24817281664352067        2.9482486817922070E-003
   1.2734635687548219       0.24670537958113675        2.9530780144042066E-003
   1.3483790415339263       0.24561621515849694        2.9548010705933840E-003
   1.4234463406847115       0.24479235185542456        2.9550175511372317E-003
   1.4986287985751130       0.24415344151102106        2.9544295490981404E-003
   1.5738971381569826       0.24364208389895453        2.9533276744332926E-003
   1.6492276173739311       0.24321598543085615        2.9518131783473432E-003
   1.7246006862803862       0.24284236626027406        2.9498950015064184E-003
   1.7999999523162842       0.24249401438256105        2.9478061160026496E-003
 -0.80000001192092896       0.28310958475848635        3.1721710961572711E-003
 -0.72522328702186478       0.28381116228013664        3.1753201653143648E-003
 -0.65048069229910532       0.28456380983475243        3.1782595172922721E-003
 -0.57578636890754387       0.28542217648371604        3.1806585534868981E-003
 -0.50115883729777777       0.28645211305336882        3.1822286502786196E-003
 -0.42662227252474261       0.28773772769361605        3.1823143017352873E-003
 -0.35220856176735088       0.28938960534019104        3.1795359806138946E-003
 -0.27796060569066477       0.29155185721201143        3.1711393633379265E-003
 -0.20393754171543521       0.29439906652646725        3.1519960374436209E-003
 -0.13022217700719121       0.29809860776580083        3.1138133406372658E-003