VARIABLES = "X" "Y" "J"
ZONE I=  41    J=   19
 -0.80000001192092896        0.0000000000000000        1.9181704389089975E-003
 -0.72000001072883602        0.0000000000000000        1.9244502513450898E-003
 -0.64000000953674319        0.0000000000000000        1.9314247063195200E-003
 -0.56000000834465025        0.0000000000000000        1.9398927770457406E-003
 -0.48000000715255736        0.0000000000000000        1.9509998104206394E-003
 -0.40000000596046448        0.0000000000000000        1.9666388806499741E-003
 -0.32000000476837154        0.0000000000000000        1.9904073335071815E-003
 -0.24000000357627871        0.0000000000000000        2.0303456115658741E-003
 -0.16000000238418577        0.0000000000000000        2.1089497772653156E-003
  -8.0000001192092829E-002   0.0000000000000000        2.3148822515414408E-003
   0.0000000000000000        0.0000000000000000        2.7435218998383597E-003
   5.0000000000000003E-002   4.4602089554664957E-002   1.0865636217337036E-003
  0.10000000000000001        5.8722143818967620E-002   9.7370085632719761E-004
  0.15000000000000002        6.6983760864784622E-002   9.6217548885760707E-004
  0.20000000000000001        7.1846641918802551E-002   9.6553844126200236E-004
  0.25000000000000000        7.4334200719891608E-002   9.7488724551783904E-004
  0.30000000000000004        7.5019308835821752E-002   9.8736491146028367E-004
  0.35000000000000003        7.4275505767019634E-002   1.0016547424021257E-003
  0.40000000000000002        7.2368894454773111E-002   1.0170378326910794E-003
  0.45000000000000001        6.9499149665645854E-002   1.0330992999136558E-003
  0.50000000000000000        6.5820350277604772E-002   1.0496156547635999E-003
  0.55000000000000004        6.1452585138372533E-002   1.0665098881028649E-003
  0.60000000000000009        5.6488883819410578E-002   1.0838402165979691E-003
  0.65000000000000002        5.0999586638980257E-002   1.1018137383519736E-003
  0.70000000000000007        4.5035223344168644E-002   1.1208299156926212E-003
  0.75000000000000000        3.8628479001300155E-002   1.1415760347818034E-003
  0.80000000000000004        3.1795577738765200E-002   1.1652377443790703E-003
  0.85000000000000009        2.4537282123169087E-002   1.1940212331723811E-003
  0.90000000000000002        1.6839631126404589E-002   1.2327465492825787E-003
  0.95000000000000007        8.6744956946254725E-003   1.2954114686861327E-003
   1.0000000000000000        4.1681862848033020E-009   1.8372477937632372E-003
   1.0799999952316284        0.0000000000000000        2.0532150388032503E-003
   1.1599999904632567        0.0000000000000000        1.9960871325143195E-003
   1.2399999856948853        0.0000000000000000        1.9686404452140607E-003
   1.3199999809265137        0.0000000000000000        1.9525216565844689E-003
   1.3999999761581421        0.0000000000000000        1.9419937358089521E-003
   1.4799999713897705        0.0000000000000000        1.9346324318962620E-003
   1.5599999666213988        0.0000000000000000        1.9291942713959046E-003
   1.6399999618530274        0.0000000000000000        1.9249446361168760E-003
   1.7199999570846556        0.0000000000000000        1.9213932023936962E-003
   1.7999999523162842        0.0000000000000000        1.9181702959941722E-003
 -0.80000001192092896        2.4614517989953628E-002   2.0075829965411894E-003
 -0.72049958343931220        2.4694170318596532E-002   2.0139583983695298E-003
 -0.64100277143107198        2.4782433406539000E-002   2.0210134146406490E-003
 -0.56151057421755535        2.4889165641916806E-002   2.0295202544776702E-003
 -0.48202452405844165        2.5028372925198307E-002   2.0405853856340869E-003
 -0.40254669497194473        2.5222891192774724E-002   2.0560095105146676E-003
 -0.32307970657822421        2.5515232523945421E-002   2.0791221343793710E-003
 -0.24362668427794035        2.5997323093158442E-002   2.1170103952447730E-003
 -0.16419128441120856        2.6911853273556927E-002   2.1877714608725179E-003
  -8.4780100876034742E-002   2.9121065897817620E-002   2.3515986296747818E-003
  -5.4519480288487817E-003   3.7419868426997994E-002   2.3406709993935610E-003
   4.5288184974565340E-002   6.4815044083535320E-002   1.1846789863716384E-003
   9.6043323263811056E-002   7.8255069147874917E-002   1.0813743537671815E-003
  0.14670238777887601        8.6583106357003906E-002   1.0542479821154392E-003
  0.19729169609054656        9.1669580143149104E-002   1.0489468815981266E-003
  0.24783157468939535        9.4431928771278581E-002   1.0532434207434175E-003
  0.29833599745679118        9.5411461579902532E-002   1.0626065630107010E-003
  0.34881481567855921        9.4969012625411589E-002   1.0749406884520960E-003
  0.39927533453904868        9.3364729816488648E-002   1.0891322912603642E-003
  0.44972329715912979        9.0795557455136705E-002   1.1045503584290698E-003
  0.50016352009828735        8.7414883412098701E-002   1.1208473125159815E-003
  0.55060033821978738        8.3343794869581170E-002   1.1378747174102389E-003
  0.60103795435237906        7.8678079519686403E-002   1.1556527561777427E-003
  0.65148075952522932        7.3493020728514949E-002   1.1743737547303848E-003
  0.70193368364760911        6.7847194078362691E-002   1.1944390294130933E-003
  0.75240265458235978        6.1786270973952430E-002   1.2165452402007997E-003
  0.80289530367561124        5.5348285501775743E-002   1.2418666260039994E-003
  0.85342222535709533        4.8573846067174062E-002   1.2724545073339046E-003
  0.90399964944567046        4.1532931864201268E-002   1.3121782887812888E-003
  0.95465682606532598        3.4419749384877935E-002   1.3689601370551452E-003
   1.0054681319838570        2.8012653800292282E-002   1.8536712235227659E-003
   1.0848818246797935        2.6218152444094263E-002   2.1318932104706892E-003
   1.1642831112792984        2.5570849828791709E-002   2.0819143082387334E-003
   1.2437013100056409        2.5242643856325159E-002   2.0563662781203623E-003
   1.3231388332594107        2.5045281866724157E-002   2.0410121541598611E-003
   1.4025928698874255        2.4914737822485818E-002   2.0308712608041396E-003
   1.4820598502046434        2.4822707607424378E-002   2.0237200410038393E-003
   1.5615365144809901        2.4754299225800323E-002   2.0183879301978068E-003
   1.6410201407171559        2.4700574775076735E-002   2.0141743054216238E-003
   1.7205085337001527        2.4655506167229908E-002   2.0106078176769480E-003
   1.7999999523162842        2.4614517989953628E-002   2.0073480203451474E-003
 -0.80000001192092896        5.0503811701663799E-002   2.1007629254210887E-003
 -0.72101669947494651        5.0665425707672455E-002   2.1071948774638903E-003
 -0.64204068223710276        5.0844116687679755E-002   2.1142812984160202E-003
 -0.56307400958445541        5.1059343864190081E-002   2.1227542961868638E-003
 -0.48411979424641655        5.1338497167081290E-002   2.1336599461842755E-003
 -0.40518225181079381        5.1725593487479612E-002   2.1486601918424388E-003
 -0.32626677344919136        5.2300747499586638E-002   2.1707008674503193E-003
 -0.24738006028679907        5.3230652839849575E-002   2.2055797381346611E-003
 -0.16853098761824470        5.4923669448239849E-002   2.2658456922137493E-003
  -8.9738423641327794E-002   5.8612208165095284E-002   2.3782229068875426E-003
  -1.1106782298783081E-002   6.8934857516203651E-002   2.0834122571627882E-003
   4.0438638058104992E-002   8.7444241273104531E-002   1.2988173240655241E-003
   9.1914474245543942E-002   9.9638416611042613E-002   1.1920230316284841E-003
  0.14323536605368453       0.10773747923881791        1.1518754142922068E-003
  0.19443002844608978       0.11290372875652348        1.1383026339804260E-003
  0.24553052871099806       0.11586300931757341        1.1374370749161538E-003
  0.29656175112372446       0.11709143469025698        1.1435010502248621E-003
  0.34754228231190137       0.11692283402476376        1.1537140176762909E-003
  0.39848634809142508       0.11560456958744607        1.1665850817578888E-003
  0.44940534735397175       0.11332726988719341        1.1812664561908642E-003
  0.50030895756268257       0.11024162715628837        1.1972820653485404E-003
  0.55120595940409800       0.10646857628026039        1.2144071535754835E-003
  0.60210491243491615       0.10210602090287402        1.2326187810674410E-003
  0.65301479117923988        9.7233874191230640E-002   1.2520881975749865E-003
  0.70394569307881771        9.1918656057078704E-002   1.2732084884317606E-003
  0.75490977165598583        8.6218980940655707E-002   1.2966658325689511E-003
  0.80592267128657380        8.0194255508809487E-002   1.3235791163227378E-003
  0.85700607882812185        7.3922167952587256E-002   1.3557481478435750E-003
  0.90819306711132219        6.7541146766300367E-002   1.3959865191036501E-003
  0.95954189220363462        6.1369001206318489E-002   1.4477235276670309E-003
   1.0111800943402398        5.6233372142581638E-002   1.8866785148244521E-003
   1.0899371298291787        5.3542230996602214E-002   2.2103331646216909E-003
   1.1687125175781337        5.2381218027907100E-002   2.1700170405966053E-003
   1.2475287962969139        5.1754561361446121E-002   2.1471274985449497E-003
   1.3263852185451073        5.1368083142800711E-002   2.1328516673699395E-003
   1.4052750754121002        5.1109105000923104E-002   2.1232568270110430E-003
   1.4841909882719435        5.0925016749463793E-002   2.1164075957743481E-003
   1.5631263838791791        5.0787337243580068E-002   2.1112388407890808E-003
   1.6420758002455329        5.0678680328993808E-002   2.1070983522592716E-003
   1.7210348272938507        5.0587191745978047E-002   2.1035412477065796E-003
   1.7999999523162842        5.0503811701663799E-002   2.1002632857653795E-003
 -0.80000001192092896        7.7807169640046123E-002   2.2039127243824600E-003
 -0.72155243681912673        7.8052343181645029E-002   2.2103233536216169E-003
 -0.64311589636027622        7.8322694125478334E-002   2.2173425473895406E-003
 -0.56469358122027080        7.8646738032975047E-002   2.2256356027969978E-003
 -0.48629027704720135        7.9064111387529293E-002   2.2361449525519061E-003
 -0.40791247949424331        7.9637291981866323E-002   2.2503060907802684E-003
 -0.32956864001999597        8.0476682400381680E-002   2.2704878290304201E-003
 -0.25126975488416281        8.1801221546007385E-002   2.3007765650880914E-003
 -0.17303176790067482        8.4103642255871580E-002   2.3477613075762469E-003
  -9.4888814392994222E-002   8.8649754782235066E-002   2.4145551621933847E-003
  -1.6969675053290393E-002   9.8886684756193916E-002   2.0242212462692069E-003
   3.5410726954235965E-002  0.11230035288602735        1.4144421537862846E-003
   8.7606284996554429E-002  0.12297319773878047        1.3088086002877881E-003
  0.13959538541331520       0.13060788959664776        1.2595270378354289E-003
  0.19141099357071775       0.13571297959308887        1.2384127932831127E-003
  0.24309250809742361       0.13878545932588499        1.2322803913158125E-003
  0.29467310313238948       0.14021141858166269        1.2347754253738841E-003
  0.34617886807419795       0.14028462344577708        1.2426075849270698E-003
  0.39763042263315251       0.13923272634064757        1.2539486929814467E-003
  0.44904463419768964       0.13723618080697331        1.2677376026320982E-003
  0.50043602092985229       0.13444072309296029        1.2833634235737024E-003
  0.55181787723084463       0.13096575786795658        1.3005161517815778E-003
  0.60320324027446481       0.12691043095936472        1.3191191461754414E-003
  0.65460582790995425       0.12235867697183929        1.3393085203353078E-003
  0.70604109967462947       0.11738438600908446        1.3614467930376944E-003
  0.75752766192946830       0.11205816352681068        1.3861686847756157E-003
  0.80908941843411830       0.10645834755016180        1.4144568669750839E-003
  0.86075933629151502       0.10069210850158415        1.4477085312633111E-003
  0.91258701171715984        9.4940100595139243E-002   1.4875470588836851E-003
  0.96465606228231982        8.9551207723766277E-002   1.5342281754147109E-003
   1.0171263051785111        8.5188577955191566E-002   1.9484016974841342E-003
   1.0951772226129417        8.2090289862336963E-002   2.2955686278007081E-003
   1.1732979917789623        8.0548075011104489E-002   2.2657861929064136E-003
   1.2514902670301620        7.9663089992381211E-002   2.2465743170730040E-003
   1.3297454819244332        7.9101342104130223E-002   2.2339169714154397E-003
   1.4080517180713972        7.8718909181776903E-002   2.2251601593365152E-003
   1.4863974123552413        7.8444275763238147E-002   2.2187823806930707E-003
   1.5647725636282221        7.8237329675907505E-002   2.2138812823189005E-003
   1.6431689233929194        7.8073042754684144E-002   2.2098808618016838E-003
   1.7215798297543810        7.7934105700164694E-002   2.2063776753647076E-003
   1.7999999523162842        7.7807169640046123E-002   2.2031159827326095E-003
 -0.80000001192092896       0.10668802716870203        2.3187773442104953E-003
 -0.72210820675644583       0.10701740681272529        2.3250675786134819E-003
 -0.64423122388309517       0.10737945292372228        2.3318971155002434E-003
 -0.56637351753027076       0.10781088827399220        2.3398356057277364E-003
 -0.48854167374684909       0.10836194962138160        2.3496794675802136E-003
 -0.41074465499961038       0.10910992946180070        2.3625618469354181E-003
 -0.33299432704807513       0.11018657262530202        2.3801437481482187E-003
 -0.25530671655060244       0.11183893133734042        2.4046715209895013E-003
 -0.17770613144983066       0.11457421844435617        2.4375935828213850E-003
 -0.10024163655404350       0.11950432509439991        2.4689030784655940E-003
  -2.3050813882166923E-002  0.12890745153735159        2.0484044435114639E-003
   3.0177629003148018E-002  0.13918286920202411        1.5313806765814115E-003
   8.3106542839843062E-002  0.14834024035978172        1.4327468579362667E-003
  0.13577551520194450       0.15535642973462602        1.3780816376856150E-003
  0.18822875873137754       0.16027644531595120        1.3506000175040700E-003
  0.24051204299699108       0.16337846522188457        1.3393698004951220E-003
  0.29266513549081064       0.16494703882897271        1.3381516230426200E-003
  0.34472052403965531       0.16522626691083933        1.3433927346607423E-003
  0.39670464178823628       0.16441795416246791        1.3530091439596288E-003
  0.44863956346554984       0.16268859002428598        1.3657495020720858E-003
  0.50054456647276568       0.16017657301690302        1.3808707021748653E-003
  0.55243747859223269       0.15699821930250060        1.3979722821911239E-003
  0.60433589337022675       0.15325281696777823        1.4169144724295215E-003
  0.65625838647592705       0.14902740118422778        1.4377841573120439E-003
  0.70822591246536937       0.14440216226614766        1.4608912978806995E-003
  0.76026365619345937       0.13945786981128291        1.4867834461341775E-003
  0.81240383195813271       0.13428775223439479        1.5162532654346525E-003
  0.86469044011740837       0.12901836461908475        1.5502530247396313E-003
  0.91718821946466456       0.12384681068301071        1.5894271786631576E-003
  0.97000062491168937       0.11909776455502268        1.6324802110159833E-003
   1.0233040079340749       0.11525178147131492        2.0320376595554632E-003
   1.1006123990290311       0.11202105063320597        2.3909061254088048E-003
   1.1780502309580239       0.11021695597690423        2.3712562613502843E-003
   1.2555950310544419       0.10911967199817137        2.3563989664081362E-003
   1.3332274784294469       0.10840132788978521        2.3458533664498112E-003
   1.4109292823300319       0.10790333296752676        2.3382402889533640E-003
   1.4886842885985598       0.10754138842545788        2.3325253404971919E-003
   1.5664789253740834       0.10726622487184388        2.3280159702326075E-003
   1.6443020956350263       0.10704627476148833        2.3242389147611594E-003
   1.7221448391389924       0.10685931875896032        2.3208476471291775E-003
   1.7999999523162842       0.10668802716870203        2.3176486539607023E-003
 -0.80000001192092896       0.13733992116302549        2.4475320147668775E-003
 -0.72268582015418581       0.13775292107769349        2.4535787911879781E-003
 -0.64539025981407661       0.13820520227509342        2.4600702662080885E-003
 -0.56811919350909901       0.13874053856077004        2.4674507806878598E-003
 -0.49088115467983701       0.13941766007029635        2.4763328391720295E-003
 -0.41368777383570859       0.14032434227988486        2.4874915635537420E-003
 -0.33655466528647410       0.14160403786678924        2.5018251810178874E-003
 -0.25950342582945657       0.14350945130000003        2.5198658137575223E-003
 -0.18256714870871762       0.14651151566607543        2.5393236884962392E-003
 -0.10580747557545397       0.15149345618822455        2.5449180009107049E-003
  -2.9361740024462138E-002  0.15984209608259781        2.1201070060374236E-003
   2.4719863010822754E-002  0.16804561244896646        1.6557196840551803E-003
   7.8400400887110061E-002  0.17583500879185504        1.5662169164990609E-003
  0.13176558595879481       0.18215616047098712        1.5091433938949793E-003
  0.18487520872775720       0.18679324628417146        1.4766473149059099E-003
  0.23778210561650245       0.18984694418460685        1.4607112236503699E-003
  0.29053183622745671       0.19150239028290880        1.4557681769720757E-003
  0.34316245068006646       0.19194929458971335        1.4582716833622784E-003
  0.39570564162825256       0.19135908430192544        1.4659938717911194E-003
  0.44818838765809194       0.18988095778293151        1.4775355504111846E-003
  0.50063458992739152       0.18764364986417445        1.4920342206430598E-003
  0.55306657702256690       0.18475872499654808        1.5089987602200257E-003
  0.60550652542108729       0.18132431480893074        1.5282191303138480E-003
  0.65797792257594434       0.17742933181981579        1.5497202516954046E-003
  0.71050726696957611       0.17315873359004297        1.5737403524918945E-003
  0.76312631135740261       0.16860092016160530        1.6007140577553659E-003
  0.81587538297990303       0.16385905189430974        1.6312223622385782E-003
  0.86880878420555641       0.15906882309931752        1.6658152755965401E-003
  0.92200416821055520       0.15442423200729075        1.7044909662728889E-003
  0.97557891623935455       0.15020230110072805        1.7455256715481900E-003
   1.0297151741887003       0.14673787447125619        2.1354266425552540E-003
   1.1062532861672765       0.14353190871853794        2.4993268071506402E-003
   1.1829812005289542       0.14156736644283588        2.4888710150706688E-003
   1.2598541395826555       0.14030606656948635        2.4787533953815051E-003
   1.3368408412153288       0.13945366637500070        2.4707458504537264E-003
   1.4139158700869314       0.13885084119492830        2.4645847378724664E-003
   1.4910581479224236       0.13840668896521280        2.4597426476745260E-003
   1.5682504019561947       0.13806558540676644        2.4557690486884257E-003
   1.6454786279294513       0.13779077800781650        2.4523164842084498E-003
   1.7227315223557138       0.13755585127382799        2.4491104421234576E-003
   1.7999999523162842       0.13733992116302549        2.4460345124260479E-003
 -0.80000001192092896       0.16999431252824906        2.5929274526064554E-003
 -0.72328756182026099       0.17048878916322996        2.5985809854863319E-003
 -0.64659752870958975       0.17102801842813181        2.6045582544263531E-003
 -0.56993733710988792       0.17166137872470169        2.6111494424106078E-003
 -0.49331761256591189       0.17245361715870772        2.6187533639895726E-003
 -0.41675282778580486       0.17349829310370113        2.6277578473958146E-003
 -0.34026257671189963       0.17494120359537951        2.6383195723494717E-003
 -0.26387423403245946       0.17702225642930952        2.6495599923588974E-003
 -0.18762924961843572       0.18014568284120633        2.6569308614950802E-003
 -0.11159872479516120       0.18496073105076247        2.6446576934064294E-003
  -3.5915351789219473E-002  0.19224661306499757        2.2259765263826213E-003
   1.9020735379710489E-002  0.19898538849015537        1.7936093726685447E-003
   7.3471382184430778E-002  0.20559530950296484        1.7127180048946789E-003
  0.12755241515201304       0.21120497281168246        1.6552166948971428E-003
  0.18133960495632992       0.21549054107073776        1.6190059691600571E-003
  0.23489367175130912       0.21842836898096243        1.5988994726540491E-003
  0.28826572451962584       0.22011694362425482        1.5903414903059689E-003
  0.34149881807577620       0.22069205899616179        1.5900320612314571E-003
  0.39462942433573395       0.22029241626825591        1.5957247829778433E-003
  0.44768910663367134       0.21904742767155155        1.6059301915540500E-003
  0.50070620799854804       0.21707409339944428        1.6196894171070808E-003
  0.55370746891951650       0.21447755844225969        1.6364263880087281E-003
  0.60671961172111966       0.21135335204420472        1.6558570688726276E-003
  0.65977101146545558       0.20779078029130543        1.6779344847529117E-003
  0.71289365076784261       0.20387765939162836        1.7028108633169278E-003
  0.76612567078483218       0.19970703817074911        1.7307943536733034E-003
  0.81951503413660765       0.19538685983038381        1.7622610570039987E-003
  0.87312516547110208       0.19105319309252031        1.7974476199600394E-003
  0.92704390428531835       0.18688483536848638        1.8360148280407108E-003
  0.98139713271237061       0.18310705487743814        1.8763963153346694E-003
   1.0363658043392039       0.17995137992850241        2.2589791820217227E-003
   1.1121118961559984       0.17686157154762272        2.6239385887735830E-003
   1.1881045939756663       0.17481978891458225        2.6216030288255402E-003
   1.2642807115019248       0.17344228846877777        2.6163849517873250E-003
   1.3405972919072890       0.17248121735955971        2.6112653057268082E-003
   1.4170214920410229       0.17178695767806984        2.6068566580515619E-003
   1.4935271393089997       0.17126768217854935        2.6031119900640502E-003
   1.5700931879917117       0.17086433135589088        2.5998377285186077E-003
   1.6467026951630597       0.17053650737987744        2.5968298102945651E-003
   1.7233419858069190       0.17025446545211867        2.5938994423379976E-003
   1.7999999523162842       0.16999431252824906        2.5910229262259602E-003
 -0.80000001192092896       0.20493126130677913        2.7584971399129076E-003
 -0.72391628149012877       0.20550314121255603        2.7635783273657344E-003
 -0.64785866172198647       0.20612384155368429        2.7688362687824366E-003
 -0.57183628264207076       0.20684664766320254        2.7743808624726574E-003
 -0.49586197695881251       0.20773960827559962        2.7803788290633562E-003
 -0.41995316163409002       0.20889736006602511        2.7868308156290111E-003
 -0.34413346860192107       0.21045979200491169        2.7932384928542843E-003
 -0.26843586919406531       0.21264082289664138        2.7977064185794077E-003
 -0.19290908571064874       0.21576509619503673        2.7946882242100568E-003
 -0.11763057080955475       0.22027792796361784        2.7703212769845565E-003
  -4.2726708307778513E-002  0.22657386018573469        2.3618051135508330E-003
   1.3063399845861693E-002  0.23221097005106386        1.9506809505052810E-003
   6.8301333981298673E-002  0.23782120152441485        1.8767490308397759E-003
  0.12311984161503775       0.24274226237656013        1.8198866824350038E-003
  0.17760824624353666       0.24663539767288115        1.7810512950250841E-003
  0.23183524972540009       0.24940288212890449        1.7573660205769069E-003
  0.28585741170475659       0.25107535399120456        1.7453987091338881E-003
  0.33972241907985584       0.25173966127007946        1.7422718538282814E-003
  0.39347111834721099       0.25150181661414600        1.7458404401235856E-003
  0.44713933497507274       0.25047005875799822        1.7545907574960994E-003
  0.50075962886504966       0.24874802949388675        1.7674992302455573E-003
  0.55436300101092706       0.24643289841353355        1.7839167558517134E-003
  0.60798060526908548       0.24361607401127469        1.8034859247296003E-003
  0.66164558223198333       0.24038558461648432        1.8260820153528068E-003
  0.71539520519700051       0.23682995085943317        1.8517632601810208E-003
  0.76927363005855476       0.23304373216300642        1.8807097718680720E-003
  0.82333569439596610       0.22913491015200568        1.9131192004541967E-003
  0.87765241089200208       0.22523339582830396        1.9490149648071912E-003
  0.93231890310670862       0.22149696734277732        1.9879447700118379E-003
  0.98746496631043212       0.21810428468457088        2.0287177969118006E-003
   1.0432659214271318       0.21521740598158226        2.4049266753636742E-003
   1.1182025754017155       0.21229768386960576        2.7683821531192736E-003
   1.1934364349026056       0.21024545061905434        2.7731533311701655E-003
   1.2688903839698149       0.20879726676940999        2.7728355095199761E-003
   1.3445110452121585       0.20775477405062781        2.7708761093345130E-003
   1.4202584349201615       0.20698489013092905        2.7685040215724085E-003
   1.4961013449215419       0.20639963115688809        2.7660911464314204E-003
   1.5720149882238945       0.20593932861272263        2.7636981828368908E-003
   1.6479795072329682       0.20556158070399913        2.7612749708755720E-003
   1.7239788626155863       0.20523430593472816        2.7587296830574267E-003
   1.7999999523162842       0.20493126130677913        2.7561471018654484E-003
 -0.80000001192092896       0.24249401438256105        2.9488595051206999E-003
 -0.72457550649532487       0.24313687147373633        2.9531575608834075E-003
 -0.64918061615590750       0.24383098242305440        2.9574614592412672E-003
 -0.57382628640069466       0.24463165325617972        2.9616794439996518E-003
 -0.49852761071022239       0.24560744119591843        2.9657414963685266E-003
 -0.42330493616914078       0.24684970507250870        2.9692899152357365E-003
 -0.34818576985691180       0.24848590343081153        2.9713044705355091E-003
 -0.27320811723311056       0.25069626568397768        2.9692788126341849E-003
 -0.19842646886379792       0.25372594505944635        2.9575888371135219E-003
 -0.12392188167054193       0.25785934407699795        2.9251543230572000E-003
  -4.9814083921708614E-002  0.26326263815138168        2.5282289017898541E-003
   6.8288249752034413E-003  0.26802738063996345        2.1327556855247095E-003
   6.2869716490074237E-002  0.27279125699966006        2.0639208022122995E-003
  0.11844843777497510       0.27706816790528982        2.0080747107699970E-003
  0.17366403092029464       0.28055106214135828        1.9674217132158367E-003
  0.22859233699060733       0.28310772610479401        1.9407278822531225E-003
  0.28329507837222073       0.28472128514146300        1.9256176024233054E-003
  0.33782423984828536       0.28543771791295341        1.9197316441750666E-003
  0.39222467212362139       0.28533258970573278        1.9211246883874653E-003
  0.44653612778465468       0.28449281464168097        1.9283250972980451E-003
  0.50079510952550155       0.28300765333666045        1.9402819749734330E-003
  0.55503665394664714       0.28096497484253724        1.9562908510072996E-003
  0.60929613794641968       0.27845056907979621        1.9759264742842788E-003
  0.66361122584817445       0.27554942668169374        1.9989855102478275E-003
  0.71802413101874374       0.27234852698165740        2.0254309493944953E-003
  0.77258444113951441       0.26894091548714633        2.0553231751125776E-003
  0.82735284706008549       0.26543065242869629        2.0887174573898065E-003
  0.88240617618839168       0.26193725056840189        2.1255121618591632E-003
  0.93784399469443069       0.25859597991978406        2.1652751408994565E-003
  0.99379630292981191       0.25554712545443553        2.2072090616508601E-003
   1.0504299859787305       0.25290698680536650        2.5771747680958055E-003
   1.1245429628880632       0.25018969468396079        2.9372540002094430E-003
   1.1989958329477495       0.24818000000654114        2.9482573386547602E-003
   1.2737019139613868       0.24670328743604017        2.9527379084520558E-003
   1.3485993356677624       0.24560762448887821        2.9541384707873078E-003
   1.4236417283501961       0.24478004985687932        2.9540637924713774E-003
   1.4987931761579061       0.24414004504850240        2.9532217494823961E-003
   1.5740253281796039       0.24362987731253194        2.9519086047309459E-003
   1.6493155226445104       0.24320679053158115        2.9502305458650822E-003
   1.7246454214446689       0.24283744694133139        2.9482004800643743E-003
   1.7999999523162842       0.24249401438256105        2.9460268675288053E-003
 -0.80000001192092896       0.28310958475848635        3.1701789160695536E-003
 -0.72526959244090061       0.28381416248494601        3.1734493383569424E-003
 -0.65057197030412828       0.28457061577449222        3.1765349709353455E-003
 -0.57591995395707263       0.28543428199044507        3.1791278012927521E-003
 -0.50133085500928232       0.28647153376225182        3.1809313225698173E-003
 -0.42682778084616674       0.28776676369885024        3.1812829120516305E-003
 -0.35244170388624513       0.28943055124930500        3.1787977867283228E-003
 -0.27821476864880185       0.29160669234107378        3.1707196594923230E-003
 -0.20420551280260815       0.29446919179606040        3.1519225079326267E-003
 -0.13049629180839947       0.29818476502950564        3.1141170647450010E-003