VARIABLES = "X" "Y" "Ja"
ZONE I=  41    J=   19
 -0.80000001192092896        0.0000000000000000        4.4422230528318720E-003
 -0.72000001072883602        0.0000000000000000        4.4422230528318660E-003
 -0.64000000953674319        0.0000000000000000        4.4422230528318660E-003
 -0.56000000834465025        0.0000000000000000        4.4422230528318677E-003
 -0.48000000715255736        0.0000000000000000        4.4422230528318660E-003
 -0.40000000596046448        0.0000000000000000        4.4422230528318677E-003
 -0.32000000476837154        0.0000000000000000        4.4422230528318660E-003
 -0.24000000357627871        0.0000000000000000        4.4422230528318660E-003
 -0.16000000238418577        0.0000000000000000        4.4422230528318686E-003
  -8.0000001192092829E-002   0.0000000000000000        4.4422230528318660E-003
   0.0000000000000000        0.0000000000000000        3.7951482767823591E-003
   5.0000000000000003E-002   4.4602089554664957E-002   2.8727646759276748E-003
  0.10000000000000001        5.8722143818967620E-002   2.6879594166339497E-003
  0.15000000000000002        6.6983760864784622E-002   2.6286961602384642E-003
  0.20000000000000001        7.1846641918802551E-002   2.5952912187601094E-003
  0.25000000000000000        7.4334200719891608E-002   2.5766184072170033E-003
  0.30000000000000004        7.5019308835821752E-002   2.5680087303384547E-003
  0.35000000000000003        7.4275505767019634E-002   2.5668586222368514E-003
  0.40000000000000002        7.2368894454773111E-002   2.5714848371105256E-003
  0.45000000000000001        6.9499149665645854E-002   2.5807041011730028E-003
  0.50000000000000000        6.5820350277604772E-002   2.5936464393673839E-003
  0.55000000000000004        6.1452585138372533E-002   2.6096611658137383E-003
  0.60000000000000009        5.6488883819410578E-002   2.6282650532535243E-003
  0.65000000000000002        5.0999586638980257E-002   2.6491117219660898E-003
  0.70000000000000007        4.5035223344168644E-002   2.6719725528439025E-003
  0.75000000000000000        3.8628479001300155E-002   2.6967242509118501E-003
  0.80000000000000004        3.1795577738765200E-002   2.7233404414008975E-003
  0.85000000000000009        2.4537282123169087E-002   2.7518858137717838E-003
  0.90000000000000002        1.6839631126404589E-002   2.7825119327230855E-003
  0.95000000000000007        8.6744956946254725E-003   2.8154541729002026E-003
   1.0000000000000000        4.1681862848033020E-009   3.6454497522049973E-003
   1.0799999952316284        0.0000000000000000        4.4422227374911550E-003
   1.1599999904632567        0.0000000000000000        4.4422227218604664E-003
   1.2399999856948853        0.0000000000000000        4.4422227218604664E-003
   1.3199999809265137        0.0000000000000000        4.4422227218604603E-003
   1.3999999761581421        0.0000000000000000        4.4422227218604603E-003
   1.4799999713897705        0.0000000000000000        4.4422227218604603E-003
   1.5599999666213988        0.0000000000000000        4.4422227218604664E-003
   1.6399999618530274        0.0000000000000000        4.4422227218604603E-003
   1.7199999570846556        0.0000000000000000        4.4422227218604603E-003
   1.7999999523162842        0.0000000000000000        4.4422227218604846E-003
 -0.80000001192092896        5.5529329171859869E-002   4.3961940144349645E-003
 -0.72083334418427614        5.5529329171859869E-002   4.3961940144349645E-003
 -0.64166667644762332        5.5529329171859869E-002   4.3961940144349645E-003
 -0.56250000871097050        5.5529329171859869E-002   4.3961940144349662E-003
 -0.48333334097431763        5.5529329171859869E-002   4.3961940144349645E-003
 -0.40416667323766486        5.5529329171859869E-002   4.3961940144349645E-003
 -0.32500000550101199        5.5529329171859869E-002   4.3961940144349645E-003
 -0.24583333776435923        5.5529329171859869E-002   4.3961940144349645E-003
 -0.16666667002770635        5.5529329171859869E-002   4.3961940144349679E-003
  -8.7500002291053480E-002   5.5529329171859869E-002   4.3961940144349645E-003
  -8.3333345544007176E-003   5.5529329171859869E-002   3.7850290259280593E-003
   4.2499998735470897E-002   9.7654694613891063E-002   2.9048957055978573E-003
   9.3333332025342511E-002  0.11099067173702674        2.7275200621319612E-003
  0.14416666531521413       0.11879352673041471        2.6698903664107397E-003
  0.19499999860508574       0.12338637526166049        2.6373648803821935E-003
  0.24583333189495735       0.12573580159124950        2.6192299508881849E-003
  0.29666666518482898       0.12638286611309185        2.6109609302546696E-003
  0.34749999847470059       0.12568036592973630        2.6100238944839335E-003
  0.39833333176457220       0.12387962746465030        2.6147756867826617E-003
  0.44916666505444380       0.12116923767855772        2.6240586848168246E-003
  0.49999999834431541       0.11769471955269240        2.6370203142920927E-003
  0.55083333163418702       0.11356949348162197        2.6530219315424536E-003
  0.60166666492405874       0.10888142316711144        2.6715884807747897E-003
  0.65249999821393023       0.10369694297673540        2.6923787061675676E-003
  0.70333333150380195        9.8063776774621941E-002   2.7151665473638419E-003
  0.75416666479367345        9.2012794647288551E-002   2.7398289992205276E-003
  0.80499999808354517        8.5559319808159728E-002   2.7663378969663083E-003
  0.85583333137341677        7.8704072479028706E-002   2.7947541849279818E-003
  0.90666666466328827        7.1433866878313629E-002   2.8252238121135452E-003
  0.95749999795315999        6.3722135939658614E-002   2.8579747256870435E-003
   1.0083333312430316        5.5529333108589568E-002   3.6436431591579245E-003
   1.0874999933503569        5.5529329171859869E-002   4.3961937165962290E-003
   1.1666666554576819        5.5529329171859869E-002   4.3961937018335024E-003
   1.2458333175650074        5.5529329171859869E-002   4.3961937018335085E-003
   1.3249999796723326        5.5529329171859869E-002   4.3961937018335024E-003
   1.4041666417796579        5.5529329171859869E-002   4.3961937018335024E-003
   1.4833333038869831        5.5529329171859869E-002   4.3961937018335024E-003
   1.5624999659943084        5.5529329171859869E-002   4.3961937018335024E-003
   1.6416666281016337        5.5529329171859869E-002   4.3961937018334963E-003
   1.7208332902089587        5.5529329171859869E-002   4.3961937018335024E-003
   1.7999999523162842        5.5529329171859869E-002   4.3961937018335267E-003
 -0.80000001192092896       0.11106174202149983        4.3501599958492582E-003
 -0.72166667763971615       0.11106174202149983        4.3501599958492522E-003
 -0.64333334335850345       0.11106174202149983        4.3501599958492522E-003
 -0.56500000907729064       0.11106174202149983        4.3501599958492522E-003
 -0.48666667479607795       0.11106174202149983        4.3501599958492504E-003
 -0.40833334051486520       0.11106174202149983        4.3501599958492539E-003
 -0.33000000623365239       0.11106174202149983        4.3501599958492504E-003
 -0.25166667195243975       0.11106174202149983        4.3501599958492513E-003
 -0.17333333767122691       0.11106174202149983        4.3501599958492548E-003
  -9.5000003390014132E-002  0.11106174202149983        4.3501599958492513E-003
  -1.6666669108801435E-002  0.11106174202149983        3.7749093396993133E-003
   3.4999997470941784E-002  0.15071024581242476        2.9370310733803362E-003
   8.6666664050685016E-002  0.16326210225269586        2.7670854163410470E-003
  0.13833333063042827       0.17060616971748990        2.7110893489002822E-003
  0.18999999721017147       0.17492897073040525        2.6794433536014442E-003
  0.24166666378991469       0.17714025691766444        2.6618463290435301E-003
  0.29333333036965797       0.17774927573276633        2.6539179815459955E-003
  0.34499999694940114       0.17708808072850629        2.6531940318258174E-003
  0.39666666352914437       0.17539322098995577        2.6580714135866434E-003
  0.44833333010888760       0.17284219505626613        2.6674181568202724E-003
  0.49999999668863082       0.16957196953680850        2.6803990885372812E-003
  0.55166666326837410       0.16568929600268018        2.6963876076246660E-003
  0.60333332984811738       0.16127687199907656        2.7149168299537858E-003
  0.65499999642786055       0.15639722572597853        2.7356506236947231E-003
  0.70666666300760372       0.15109527500873779        2.7583654872458730E-003
  0.75833332958734689       0.14540007485327466        2.7829387052241503E-003
  0.80999999616709017       0.13932604750801775        2.8093403227138526E-003
  0.86166666274683346       0.13287387084759675        2.8376275386998236E-003
  0.91333332932657663       0.12603113438000646        2.8679406862281965E-003
  0.96499999590631991       0.11877283311312221        2.9005002846488955E-003
   1.0166666624860630       0.11106174572676009        3.6418365878972676E-003
   1.0949999914690851       0.11106174202149983        4.3501597155144872E-003
   1.1733333204521073       0.11106174202149983        4.3501597016197642E-003
   1.2516666494351294       0.11106174202149983        4.3501597016197642E-003
   1.3299999784181515       0.11106174202149983        4.3501597016197642E-003
   1.4083333074011737       0.11106174202149983        4.3501597016197581E-003
   1.4866666363841956       0.11106174202149983        4.3501597016197581E-003
   1.5649999653672177       0.11106174202149983        4.3501597016197702E-003
   1.6433332943502401       0.11106174202149983        4.3501597016197581E-003
   1.7216666233332618       0.11106174202149983        4.3501597016197581E-003
   1.7999999523162842       0.11106174202149983        4.3501597016197945E-003
 -0.80000001192092896       0.16659724261551326        4.3041205692374591E-003
 -0.72250001115103557       0.16659724261551326        4.3041205692374530E-003
 -0.64500001038114230       0.16659724261551326        4.3041205692374495E-003
 -0.56750000961124902       0.16659724261551326        4.3041205692374513E-003
 -0.49000000884135569       0.16659724261551326        4.3041205692374530E-003
 -0.41250000807146237       0.16659724261551326        4.3041205692374530E-003
 -0.33500000730156904       0.16659724261551326        4.3041205692374513E-003
 -0.25750000653167576       0.16659724261551326        4.3041205692374521E-003
 -0.18000000576178241       0.16659724261551326        4.3041205692374547E-003
 -0.10250000499188905       0.16659724261551326        4.3041205692374521E-003
  -2.5000004221995775E-002  0.16659724261551326        3.7647888487588122E-003
   2.7499995703498405E-002  0.20376874703548087        2.9691704949118434E-003
   7.9999995628992598E-002  0.21553643919376927        2.8066552124070897E-003
  0.13249999555448680       0.22242169362020781        2.7522928465296319E-003
  0.18499999547998097       0.22647443209945917        2.7215263804435752E-003
  0.23749999540547514       0.22854757046344282        2.7044672854954505E-003
  0.28999999533096937       0.22911854145636548        2.6968796288410176E-003
  0.34249999525646357       0.22849865392787477        2.6963687789862780E-003
  0.39499999518195777       0.22690967880298807        2.7013717617822147E-003
  0.44749999510745192       0.22451802558273964        2.7107822605337674E-003
  0.49999999503294612       0.22145210402888182        2.7237825041826146E-003
  0.55249999495844038       0.21781199651823788        2.7397579345706763E-003
  0.60499999488393452       0.21367523415218195        2.7582498394795527E-003
  0.65749999480942867       0.20910043874590839        2.7789272111969927E-003
  0.70999999473492292       0.20412972192996962        2.8015691069036603E-003
  0.76249999466041707       0.19879032352876555        2.8260531009165236E-003
  0.81499999458591132       0.19309576477563298        2.8523474480361384E-003
  0.86749999451140547       0.18704668119568343        2.8805056016913341E-003
  0.91999999443689962       0.18063143762959644        2.9106622786807209E-003
  0.97249999436239387       0.17382659124633398        2.9430305701848474E-003
   1.0249999942878880       0.16659724608929122        3.6400296830793218E-003
   1.1024999900907275       0.16659724261551326        4.3041203064086613E-003
   1.1799999858935672       0.16659724261551326        4.3041202933820034E-003
   1.2574999816964070       0.16659724261551326        4.3041202933819973E-003
   1.3349999774992465       0.16659724261551326        4.3041202933819904E-003
   1.4124999733020860       0.16659724261551326        4.3041202933819973E-003
   1.4899999691049257       0.16659724261551326        4.3041202933819973E-003
   1.5674999649077652       0.16659724261551326        4.3041202933819973E-003
   1.6449999607106049       0.16659724261551326        4.3041202933819973E-003
   1.7224999565134445       0.16659724261551326        4.3041202933819973E-003
   1.7999999523162842       0.16659724261551326        4.3041202933820095E-003
 -0.80000001192092896       0.22213582012420582        4.2580764661944541E-003
 -0.72333334455059628       0.22213582012420582        4.2580764661944480E-003
 -0.64666667718026372       0.22213582012420582        4.2580764661944446E-003
 -0.57000000980993115       0.22213582012420582        4.2580764661944463E-003
 -0.49333334243959853       0.22213582012420582        4.2580764661944480E-003
 -0.41666667506926591       0.22213582012420582        4.2580764661944480E-003
 -0.34000000769893329       0.22213582012420582        4.2580764661944463E-003
 -0.26333334032860073       0.22213582012420582        4.2580764661944472E-003
 -0.18666667295826808       0.22213582012420582        4.2580764661944489E-003
 -0.11000000558793543       0.22213582012420582        4.2580764661944472E-003
  -3.3333338217602870E-002  0.22213582012420582        3.7546681866336036E-003
   1.9999994941883568E-002  0.25683018793639201        3.0013144612103140E-003
   7.3333328101370027E-002  0.26781367236649550        2.8462299123971093E-003
  0.12666666126085649       0.27424008833428781        2.7935013118739263E-003
  0.17999999442034292       0.27802274931720505        2.7636144081219535E-003
  0.23333332757982936       0.27995773220390696        2.7470932644730263E-003
  0.28666666073931585       0.28049065326663125        2.7398463150185275E-003
  0.33999999389880226       0.27991207550252839        2.7395485787102491E-003
  0.39333332705828877       0.27842899085778577        2.7446771749255407E-003
  0.44666666021777518       0.27619671918093847        2.7541514410783126E-003
  0.49999999337726164       0.27333511291203233        2.7671710085263911E-003
  0.55333332653674816       0.26993758486411340        2.7831333623626869E-003
  0.60666665969623457       0.26607649940849065        2.8015879624459727E-003
  0.65999999285572097       0.26180657175914068        2.8222089252509944E-003
  0.71333332601520749       0.25716710719634078        2.8447778667299896E-003
  0.76666665917469390       0.25218353026240148        2.8691726508194219E-003
  0.81999999233418042       0.24686846112564748        2.8953597418918007E-003
  0.87333332549366682       0.24122249295932571        2.9233888476157088E-003
  0.92666665865315323       0.23523476597975740        2.9533890682804406E-003
  0.97999999181263975       0.22888339960354179        2.9855660665793560E-003
   1.0333333249721262       0.22213582336648866        3.6382230554168542E-003
   1.1099999877065418       0.22213582012420582        4.2580762208735959E-003
   1.1866666504409578       0.22213582012420582        4.2580762087150439E-003
   1.2633333131753737       0.22213582012420582        4.2580762087150378E-003
   1.3399999759097894       0.22213582012420582        4.2580762087150378E-003
   1.4166666386442053       0.22213582012420582        4.2580762087150378E-003
   1.4933333013786210       0.22213582012420582        4.2580762087150309E-003
   1.5699999641130367       0.22213582012420582        4.2580762087150378E-003
   1.6466666268474526       0.22213582012420582        4.2580762087150378E-003
   1.7233332895818683       0.22213582012420582        4.2580762087150378E-003
   1.7999999523162842       0.22213582012420582        4.2580762087150500E-003
 -0.80000001192092896       0.27767749723584589        4.2120269471697131E-003
 -0.72416667817367442       0.27767749723584589        4.2120269471697001E-003
 -0.64833334442642010       0.27767749723584589        4.2120269471697001E-003
 -0.57250001067916556       0.27767749723584589        4.2120269471697036E-003
 -0.49666667693191113       0.27767749723584589        4.2120269471697001E-003
 -0.42083334318465671       0.27767749723584589        4.2120269471697018E-003
 -0.34500000943740222       0.27767749723584589        4.2120269471697001E-003
 -0.26916667569014785       0.27767749723584589        4.2120269471697001E-003
 -0.19333334194289337       0.27767749723584589        4.2120269471697044E-003
 -0.11750000819563886       0.27767749723584589        4.2120269471697018E-003
  -4.1666674448384455E-002  0.27767749723584589        3.7445467182555415E-003
   1.2499992168611640E-002  0.30989459019148247        3.0334624870112796E-003
   6.6666658785607763E-002  0.32009382312683921        2.8858090610704989E-003
  0.12083332540260390       0.32606137502825272        2.8347142994147000E-003
  0.17499999201959998       0.32957394344183533        2.8057069966034008E-003
  0.22916665863659610       0.33137076314081099        2.7897238290034388E-003
  0.28333332525359228       0.33186563214977371        2.7828176045051425E-003
  0.33749999187058832       0.33132836645555291        2.7827329955902331E-003
  0.39166665848758447       0.32995117820069253        2.7879872168183862E-003
  0.44583332510458057       0.32787829696231574        2.7975252607033139E-003
  0.49999999172157672       0.32522101738117870        2.8105641616475705E-003
  0.55416665833857282       0.32206608233432243        2.8265134483986265E-003
  0.60833332495556902       0.31848068917463612        2.8449307531392609E-003
  0.66249999157256512       0.31451564629685141        2.8654953166579330E-003
  0.71666665818956121       0.31020745247434844        2.8879913137057392E-003
  0.77083332480655720       0.30557971686603763        2.9122968977786882E-003
  0.82499999142355340       0.30064415852494303        2.9383767426815937E-003
  0.87916665804054961       0.29540132827008353        2.9662768101081801E-003
  0.93333332465754559       0.28984114173669562        2.9961205835519547E-003
  0.98749999127454180       0.28394328067620467        3.0281062968627965E-003
   1.0416666578915379       0.27767750024662069        3.6364160938737750E-003
   1.1174999873340126       0.27767749723584589        4.2120267193588024E-003
   1.1933333167764870       0.27767749723584589        4.2120267080683988E-003
   1.2691666462189617       0.27767749723584589        4.2120267080684049E-003
   1.3449999756614364       0.27767749723584589        4.2120267080684049E-003
   1.4208333051039110       0.27767749723584589        4.2120267080684049E-003
   1.4966666345463857       0.27767749723584589        4.2120267080683988E-003
   1.5724999639888602       0.27767749723584589        4.2120267080683988E-003
   1.6483332934313348       0.27767749723584589        4.2120267080683988E-003
   1.7241666228738093       0.27767749723584589        4.2120267080684049E-003
   1.7999999523162842       0.27767749723584589        4.2120267080684301E-003
 -0.80000001192092896       0.33322224449816257        4.1659717661295982E-003
 -0.72500001157323513       0.33322224449816257        4.1659717661295861E-003
 -0.65000001122554152       0.33322224449816257        4.1659717661295861E-003
 -0.57500001087784769       0.33322224449816257        4.1659717661295895E-003
 -0.50000001053015397       0.33322224449816257        4.1659717661295861E-003
 -0.42500001018246025       0.33322224449816257        4.1659717661295878E-003
 -0.35000000983476648       0.33322224449816257        4.1659717661295861E-003
 -0.27500000948707282       0.33322224449816257        4.1659717661295861E-003
 -0.20000000913937904       0.33322224449816257        4.1659717661295895E-003
 -0.12500000879168527       0.33322224449816257        4.1659717661295878E-003
  -5.0000008443991550E-002  0.33322224449816257        3.7344242007900205E-003
   4.9999914069968066E-003  0.36296192566211405        3.0656143439185372E-003
   5.9999991257985191E-002  0.37237686375202994        2.9253924339881512E-003
  0.11499999110897359       0.37788552622265548        2.8759315868284951E-003
  0.16999999095996193       0.38112798713712603        2.8478039248037035E-003
  0.22499999081095032       0.38278663601119495        2.8323587586428808E-003
  0.27999999066193870       0.38324345086301098        2.8257932770475998E-003
  0.33499999051292706       0.38274749952225973        2.8259218092089944E-003
  0.38999999036391547       0.38147621351086558        2.8313016665922350E-003
  0.44499999021490383       0.37956273152150821        2.8409034978518054E-003
  0.49999999006589224       0.37710978992260857        2.8539617411020668E-003
  0.55499998991688060       0.37419746128651221        2.8698979691784707E-003
  0.60999998976786896       0.37088777566207326        2.8882779868577451E-003
  0.66499998961885742       0.36722763440882328        2.9087861593861562E-003
  0.71999998946984578       0.36325072963811128        2.9312092203532939E-003
  0.77499998932083403       0.35897885502509941        2.9554256127626902E-003
  0.82999998917182249       0.35442282845770062        2.9813982197156078E-003
  0.88499998902281085       0.34958315839836462        3.0091692567162302E-003
  0.93999998887379921       0.34445053594410546        3.0388565901720097E-003
  0.99499998872478768       0.33900620526753533        3.0706510247256735E-003
   1.0499999885757760       0.33322224727741651        3.6346085562270728E-003
   1.1249999849498269       0.33322224449816257        4.1659715558306602E-003
   1.1999999813238775       0.33322224449816257        4.1659715454084615E-003
   1.2749999776979284       0.33322224449816257        4.1659715454084676E-003
   1.3499999740719792       0.33322224449816257        4.1659715454084676E-003
   1.4249999704460301       0.33322224449816257        4.1659715454084676E-003
   1.4999999668200810       0.33322224449816257        4.1659715454084615E-003
   1.5749999631941316       0.33322224449816257        4.1659715454084615E-003
   1.6499999595681825       0.33322224449816257        4.1659715454084615E-003
   1.7249999559422331       0.33322224449816257        4.1659715454084676E-003
   1.7999999523162842       0.33322224449816257        4.1659715454084928E-003
 -0.80000001192092896       0.38877007715095230        4.1199120333299125E-003
 -0.72583334497279584       0.38877007715095230        4.1199120333299004E-003
 -0.65166667802466294       0.38877007715095230        4.1199120333299004E-003
 -0.57750001107652982       0.38877007715095230        4.1199120333299030E-003
 -0.50333334412839681       0.38877007715095230        4.1199120333299004E-003
 -0.42916667718026380       0.38877007715095230        4.1199120333299012E-003
 -0.35500001023213074       0.38877007715095230        4.1199120333299004E-003
 -0.28083334328399778       0.38877007715095230        4.1199120333299004E-003
 -0.20666667633586472       0.38877007715095230        4.1199120333299030E-003
 -0.13250000938773165       0.38877007715095230        4.1199120333299012E-003
  -5.8333342439598646E-002  0.38877007715095230        3.7243016343691403E-003
  -2.5000093546180338E-003  0.41603220890835646        3.0977708591694644E-003
   5.3333323730362613E-002  0.42466280858695055        2.9649808218123871E-003
  0.10916665681534327       0.42971255613647363        2.9171539517363235E-003
  0.16499998990032388       0.43268489454794512        2.8899059629204460E-003
  0.22083332298530450       0.43420536492201728        2.8749988195204620E-003
  0.27666665607028518       0.43462412350286050        2.8687740970614636E-003
  0.33249998915526580       0.43416948881050171        2.8691157840468246E-003
  0.38833332224024647       0.43300411092521413        2.8746212901889293E-003
  0.44416665532522709       0.43125003703915943        2.8842869210513864E-003
  0.49999998841020776       0.42900144477302993        2.8973645189244788E-003
  0.55583332149518838       0.42633173602395430        2.9132877010115531E-003
  0.61166665458016900       0.42329777324971946        2.9316304448378564E-003
  0.66749998766514973       0.41994255055762947        2.9520822401675694E-003
  0.72333332075013035       0.41629695324109811        2.9744323794115768E-003
  0.77916665383511086       0.41238095939069308        2.9985595949963183E-003
  0.83499998692009159       0.40820448567915862        3.0244249791734341E-003
  0.89083332000507220       0.40376799821002224        3.0520670010536575E-003
  0.94666665309005282       0.39906296358515098        3.0815979096989656E-003
   1.0024999861750334       0.39407218848513265        3.1132010802314499E-003
   1.0583333192600142       0.38877007969867250        3.6328014170024085E-003
   1.1324999825656412       0.38877007715095230        4.1199118405449101E-003
   1.2066666458712680       0.38877007715095230        4.1199118309909622E-003
   1.2808333091768951       0.38877007715095230        4.1199118309909683E-003
   1.3549999724825221       0.38877007715095230        4.1199118309909683E-003
   1.4291666357881492       0.38877007715095230        4.1199118309909683E-003
   1.5033332990937762       0.38877007715095230        4.1199118309909622E-003
   1.5774999623994030       0.38877007715095230        4.1199118309909622E-003
   1.6516666257050301       0.38877007715095230        4.1199118309909622E-003
   1.7258332890106569       0.38877007715095230        4.1199118309909683E-003
   1.7999999523162842       0.38877007715095230        4.1199118309909934E-003
 -0.80000001192092896       0.44432099553711862        4.0738471830627527E-003
 -0.72666667837235654       0.44432099553711862        4.0738471830627405E-003
 -0.65333334482378436       0.44432099553711862        4.0738471830627405E-003
 -0.58000001127521195       0.44432099553711862        4.0738471830627440E-003
 -0.50666667772663965       0.44432099553711862        4.0738471830627405E-003
 -0.43333334417806735       0.44432099553711862        4.0738471830627423E-003
 -0.36000001062949499       0.44432099553711862        4.0738471830627405E-003
 -0.28666667708092275       0.44432099553711862        4.0738471830627405E-003
 -0.21333334353235039       0.44432099553711862        4.0738471830627440E-003
 -0.14000000998377804       0.44432099553711862        4.0738471830627423E-003
  -6.6666676435205741E-002  0.44432099553711862        3.7141785167684829E-003
  -1.0000010116232867E-002  0.46910544025781914        3.1299316267058611E-003
   4.6666656202740041E-002  0.47695165795436872        3.0045738383244415E-003
  0.10333332252171296       0.48154246508964188        2.9583810147769786E-003
  0.15999998884068581       0.48424466599256000        2.9320127354851809E-003
  0.21666665515965872       0.48562695019069202        2.9176436383130974E-003
  0.27333332147863165       0.48600765038650151        2.9117596921515456E-003
  0.32999998779760453       0.48559433463771312        2.9123145477216376E-003
  0.38666665411657747       0.48453487076182628        2.9179457145236359E-003
  0.44333332043555035       0.48294021383434149        2.9276751559401560E-003
  0.49999998675452328       0.48089598225277619        2.9407721190065250E-003
  0.55666665307349616       0.47846890686847998        2.9566822656531223E-003
  0.61333331939246905       0.47571068226110808        2.9749877463675837E-003
  0.66999998571144204       0.47266039506868562        2.9953831755351250E-003
  0.72666665203041492       0.46934612361076977        3.0176604043996502E-003
  0.78333331834938769       0.46578603029247645        3.0416984547422198E-003
  0.83999998466836068       0.46198913052131785        3.0674566278234951E-003
  0.89666665098733356       0.45795584803954609        3.0949696461506780E-003
  0.95333331730630644       0.45367842499696126        3.1243441411642476E-003
   1.0099999836252793       0.44914123066892570        3.1557560581255552E-003
   1.0666666499442523       0.44432099785329232        3.6309941885281261E-003
   1.1399999801814555       0.44432099553711862        4.0738470077936809E-003
   1.2133333104186586       0.44432099553711862        4.0738469991080323E-003
   1.2866666406558618       0.44432099553711862        4.0738469991080384E-003
   1.3599999708930650       0.44432099553711862        4.0738469991080384E-003
   1.4333333011302682       0.44432099553711862        4.0738469991080384E-003
   1.5066666313674715       0.44432099553711862        4.0738469991080323E-003
   1.5799999616046745       0.44432099553711862        4.0738469991080323E-003
   1.6533332918418777       0.44432099553711862        4.0738469991080323E-003
   1.7266666220790807       0.44432099553711862        4.0738469991080384E-003
   1.7999999523162842       0.44432099553711862        4.0738469991080627E-003
 -0.80000001192092896       0.49987499999928919        4.0277782948723055E-003
 -0.72750001177191725       0.49987499999928919        4.0277782948722933E-003
 -0.65500001162290578       0.49987499999928919        4.0277782948722933E-003
 -0.58250001147389407       0.49987499999928919        4.0277782948722959E-003
 -0.51000001132488249       0.49987499999928919        4.0277782948722933E-003
 -0.43750001117587090       0.49987499999928919        4.0277782948722933E-003
 -0.36500001102685931       0.49987499999928919        4.0277782948722933E-003
 -0.29250001087784772       0.49987499999928919        4.0277782948722942E-003
 -0.22000001072883607       0.49987499999928919        4.0277782948722959E-003
 -0.14750001057982443       0.49987499999928919        4.0277782948722942E-003