VARIABLES = "X" "Y" "Ust1" "Ust2" "Ust3" "Ust4"
ZONE I=  71    J=   48
 -0.50000000000000000        0.0000000000000000        3.9999999999999991        3.9999999999999991       -0.0000000000000000        3.7857142857142860     
 -0.46670000000000000        0.0000000000000000        4.0020195116321151        4.0024473204810906        0.0000000000000000        3.7877466624613820     
 -0.43330000000000002        0.0000000000000000        4.0005783314216989        3.9995149647393680        0.0000000000000000        3.7859572522481582     
 -0.40000000000000002        0.0000000000000000        4.0026603307367701        4.0022384880278112        0.0000000000000000        3.7881119226983064     
 -0.36670000000000003        0.0000000000000000        4.0048716452161166        4.0036906528681975        0.0000000000000000        3.7899883244536956     
 -0.33329999999999999        0.0000000000000000        4.0087616582260184        4.0060447958204701        0.0000000000000000        3.7932336232065689     
 -0.29999999999999999        0.0000000000000000        4.0119835781808248        4.0078446358382216        0.0000000000000000        3.7958791328868204     
 -0.26669999999999999        0.0000000000000000        4.0174365315906826        4.0137980418544963        0.0000000000000000        3.8011840325558208     
 -0.23330000000000001        0.0000000000000000        4.0221260874781688        4.0160013936690930        0.0000000000000000        3.8049163706242495     
 -0.20000000000000001        0.0000000000000000        4.0303221193543477        4.0211578653164635        0.0000000000000000        3.8118177646524596     
 -0.16669999999999999        0.0000000000000000        4.0496827395408470        4.0416787850731506        0.0000000000000000        3.8304851177195660     
 -0.13330000000000000        0.0000000000000000        4.0693449633284811        4.0549700203129309        0.0000000000000000        3.8473166975191484     
 -0.10000000000000001        0.0000000000000000        4.0972465115268326        4.0668401665373306        0.0000000000000000        3.8693106271282365     
  -6.6669999999999993E-002   0.0000000000000000        4.1674771837597717        4.1070634885351955        0.0000000000000000        3.9280270499979162     
  -3.3329999999999999E-002   0.0000000000000000        4.1186180674588488        4.1408854341880987        0.0000000000000000        3.9053930903955272     
   0.0000000000000000        0.0000000000000000        3.9083588119275254        3.8880147975190344       0.29395071587620336        3.6963674202059291     
   2.5000000000000001E-002   4.4099999999999999E-003   4.4092694121392579        4.0774886068624321       0.71926899025053304        4.1072579938036071     
   5.0000000000000003E-002   8.8199999999999997E-003   4.8346773571204524        4.2999906748963133       0.75851835505170973        4.4652353894394468     
   7.4999999999999997E-002   1.3230000000000000E-002   5.1619253300041539        4.5098251264954268       0.79553315231379329        4.7497039172341937     
  0.10000000000000001        1.7639999999999999E-002   5.3869377107811856        4.6852351305639139       0.82647547703147417        4.9521197762584626     
  0.12500000000000000        2.2050000000000000E-002   5.5342623524052019        4.8247219185810071       0.85108094643769006        5.0905070651315718     
  0.14999999999999999        2.6460000000000001E-002   5.6127183805765180        4.9020747450117330       0.86472598502006992        5.1649744238678883     
  0.17499999999999999        3.0870000000000002E-002   5.6712504044642493        4.9704433356420967       0.87678620440726529        5.2232827408735316     
  0.20000000000000001        3.5279999999999999E-002   5.6909794721717564        4.9946450203448993       0.88105538158884011        5.2432389712006788     
  0.22500000000000001        3.9690000000000003E-002   5.7079573394542873        5.0143754509173837       0.88453582954182686        5.2601305154396290     
  0.25000000000000000        4.4100000000000000E-002   5.7074371821971184        5.0164027365803303       0.88489344273276938        5.2602942653707530     
  0.27500000000000002        4.8509999999999998E-002   5.7079315812125007        5.0220670689634872       0.88589263096515947        5.2621048147904821     
  0.29999999999999999        5.2920000000000002E-002   5.6966027777588284        5.0131193519151775       0.88431425367783767        5.2519252340348830     
  0.32500000000000001        5.7329999999999999E-002   5.6878822994584812        5.0130925293062605       0.88430952216962477        5.2458696317040481     
  0.34999999999999998        6.1740000000000003E-002   5.6603733982965156        4.9934559215255536       0.88084562455710813        5.2216957124141059     
  0.37500000000000000        6.6150000000000000E-002   5.6299459015866615        4.9786688799150314       0.87823719041701009        5.1967632725235724     
  0.40000000000000002        7.0559999999999998E-002   5.5673112935768430        4.9386220196511728       0.87117292426646653        5.1429511631554643     
  0.42499999999999999        7.4969999999999995E-002   5.4783800700328262        4.8953196583907213       0.86353438774012425        5.0701326415675734     
  0.45000000000000001        7.9380000000000006E-002   5.2760466560831283        4.7903563654267085       0.84501886286127237        4.9030014462725298     
  0.47499999999999998        8.3790000000000003E-002   5.6950271181571974        4.8781451241117191       0.86050479989330686        5.2163005054733169     
  0.50000000000000000        8.8200000000000001E-002   5.7463798286332226        5.2931432388964428        0.0000000000000000        5.3388150664387126     
  0.52500000000000002        8.3790000000000003E-002   4.2125316572225149        4.2190641538990850      -0.74424291674779730        4.0255944503771852     
  0.55000000000000004        7.9380000000000006E-002   3.5287665905213594        3.6742812037120345      -0.64814320433480432        3.4143122797015533     
  0.57499999999999996        7.4969999999999995E-002   3.1472118779091134        3.3247806989232926      -0.58649131529007015        3.0598992570304064     
  0.59999999999999998        7.0559999999999998E-002   2.9253065591068643        3.1005332395568272      -0.54693406345782347        2.8473230990038383     
  0.62500000000000000        6.6150000000000000E-002   2.8022343312517584        2.9715620913671081      -0.52418355291715713        2.7279918622245822     
  0.65000000000000002        6.1740000000000003E-002   2.7086577293190142        2.8603433547463397      -0.50456456777725400        2.6331572664524776     
  0.67500000000000004        5.7329999999999999E-002   2.6578174996523618        2.8013604126282532      -0.49415997678762463        2.5820728290028105     
  0.69999999999999996        5.2920000000000002E-002   2.6130539706330951        2.7443326881483561      -0.48410028618937079        2.5354376310250406     
  0.72499999999999998        4.8509999999999998E-002   2.5906169580668084        2.7192177762054994      -0.47967001572264972        2.5130902976754577     
  0.75000000000000000        4.4100000000000000E-002   2.5724348009728559        2.6966213736314191      -0.47568401030858160        2.4942649004077397     
  0.77500000000000002        3.9690000000000003E-002   2.5725905020094944        2.7016976777537738      -0.47657947035576531        2.4958430201390795     
  0.80000000000000004        3.5279999999999999E-002   2.5616920524129276        2.6868470201499410      -0.47395981435445023        2.4841306562720691     
  0.82499999999999996        3.0870000000000002E-002   2.5644816349845270        2.6908272030826805      -0.47466191862378537        2.4870831774666700     
  0.84999999999999998        2.6460000000000001E-002   2.5622097097209795        2.6853664830632162      -0.47369864761235098        2.4838541469000148     
  0.87500000000000000        2.2050000000000000E-002   2.5625963892798658        2.6831332199342475      -0.47330469999640090        2.4833356414107834     
  0.90000000000000002        1.7639999999999999E-002   2.5747861550775775        2.6955568874448841      -0.47549623494527715        2.4949614352621117     
  0.92500000000000004        1.3230000000000000E-002   2.5955388949296978        2.7141160993871520      -0.47877007993189424        2.5140320611997287     
  0.94999999999999996        8.8199999999999997E-003   2.6363142902679719        2.7449813801348015      -0.48421471545577977        2.5500587362517249     
  0.97499999999999998        4.4099999999999999E-003   2.6044429169410659        2.7523456036762246      -0.48551376448848560        2.5313543214999834     
   1.0000000000000000        0.0000000000000000        2.5340329300945701        2.6653624684375008      -0.20265945665188601        2.4490038691910287     
   1.0329999999999999        0.0000000000000000        2.8952774228627249        2.8889056921331715        0.0000000000000000        2.7560920190158038     
   1.0669999999999999        0.0000000000000000        3.2203791280185725        3.1346670606287552        0.0000000000000000        3.0479939585553684     
   1.1000000000000001        0.0000000000000000        3.4324775268286487        3.3082669950015315        0.0000000000000000        3.2412594491107480     
   1.1330000000000000        0.0000000000000000        3.5671156093007137        3.4341826854346458        0.0000000000000000        3.3675067570449224     
   1.1670000000000000        0.0000000000000000        3.6520174131635330        3.5336694026690916        0.0000000000000000        3.4524540951861029     
   1.2000000000000000        0.0000000000000000        3.7212040200691856        3.6235266133245605        0.0000000000000000        3.5241127701773851     
   1.2330000000000001        0.0000000000000000        3.7068249343241564        3.5871001658907025        0.0000000000000000        3.5042757379196900     
   1.2669999999999999        0.0000000000000000        3.7359294189318737        3.6263392493775006        0.0000000000000000        3.5348565599403976     
   1.3000000000000000        0.0000000000000000        3.7413856711221123        3.6369868715633631        0.0000000000000000        3.5415043697587749     
   1.3330000000000000        0.0000000000000000        3.7852704031662467        3.6974760152021884        0.0000000000000000        3.5880084301462176     
   1.3670000000000000        0.0000000000000000        3.7513910264665236        3.6482892462892629        0.0000000000000000        3.5514130679868749     
   1.3999999999999999        0.0000000000000000        3.7441876887610985        3.6413233842215780        0.0000000000000000        3.5446046996412512     
   1.4330000000000001        0.0000000000000000        3.7459905953405013        3.6490911289855155        0.0000000000000000        3.5479840640438676     
   1.4670000000000001        0.0000000000000000        3.7529027869069349        3.6499203238640563        0.0000000000000000        3.5528530172897410     
   1.5000000000000000        0.0000000000000000        3.7529027869069349        3.6499203238640563        0.0000000000000000        3.5528530172897410     
 -0.50000000000000000        1.1830000000000000E-002   4.0000000000000000        4.0000000000000000        0.0000000000000000        3.7857142857142865     
 -0.46670000000000000        1.1870000000000000E-002   4.0011982933120036        4.0011128118884809        6.3956792748604344E-004   3.7868227921915110     
 -0.43340000000000001        1.1900000000000001E-002   4.0018837884959195        4.0016362492987838       -1.3166001064326162E-003   3.7874258911806433     
 -0.40020000000000000        1.1930000000000000E-002   4.0026475380203905        4.0022176981140065       -8.4751391012191025E-005   3.7880975308908398     
 -0.36690000000000000        1.1970000000000000E-002   4.0053428182216502        4.0044563712032106        3.3442035479423711E-004   3.7905183942086436     
 -0.33360000000000001        1.2010000000000000E-002   4.0101267066993982        4.0082633844988029       -9.1456501554742164E-004   3.7947693041870107     
 -0.30030000000000001        1.2060000000000000E-002   4.0145423427942921        4.0120038800355236       -8.2775904330106246E-004   3.7987577477122980     
 -0.26710000000000000        1.2109999999999999E-002   4.0181273816794869        4.0149210134754636       -4.8820697161354286E-004   3.8019612404496179     
 -0.23380000000000001        1.2170000000000000E-002   4.0248137650046161        4.0203707684817749       -1.6082321672253477E-003   3.8079400171065578     
 -0.20050000000000001        1.2239999999999999E-002   4.0353530762349195        4.0293383846842294       -2.4750460618645823E-003   3.8174776280875959     
 -0.16730000000000000        1.2330000000000001E-002   4.0488739766156421        4.0403631098733523       -1.7781938948443915E-003   3.8295752498520401     
 -0.13400000000000001        1.2449999999999999E-002   4.0724078670081099        4.0599521431354253       -3.5106136011773701E-003   3.8507625402705443     
 -0.10070000000000000        1.2610000000000000E-002   4.1143612266953902        4.0947129084900302       -6.9296292761168252E-003   3.8885659375796391     
  -6.7460000000000006E-002   1.2860000000000000E-002   4.2072646339400928        4.1720001076407369       -1.3197948895541113E-002   3.9728005424715342     
  -3.4209999999999997E-002   1.3299999999999999E-002   4.0994126286972286        4.1095129543834705        4.0960073953443851E-002   3.8837802086337323     
  -9.5859999999999999E-004   1.4400000000000000E-002   3.9090268065485527        3.8963068063866264       0.17416385065123838        3.6971189199206438     
   2.4119999999999999E-002   1.7809999999999999E-002   4.5212177357853500        4.3119494249049550       0.35667281423320674        4.2335078840111748     
   4.9189999999999998E-002   2.1720000000000000E-002   4.9924291490016310        4.6028471633090344       0.52997330967307577        4.6434771550034641     
   7.4249999999999997E-002   2.5800000000000000E-002   5.3071198565281028        4.7809805295251753       0.66797811970766252        4.9138881638074849     
   9.9309999999999996E-002   2.9960000000000001E-002   5.4918669282240193        4.8783702739426928       0.76182084160120700        5.0707946031866946     
  0.12440000000000000        3.4160000000000003E-002   5.5899588849669311        4.9273627610705786       0.81804296817048539        5.1535003718300141     
  0.14940000000000001        3.8390000000000001E-002   5.6393035213652416        4.9513014476935595       0.84805136067114739        5.1950424703027220     
  0.17449999999999999        4.2630000000000001E-002   5.6673387928926831        4.9659156185748241       0.86372885277807454        5.2188586710781673     
  0.19950000000000001        4.6890000000000001E-002   5.6755807463294659        4.9695548789542405       0.87118759952993197        5.2258228661913853     
  0.22459999999999999        5.1139999999999998E-002   5.6836371948517055        4.9738219667453158       0.87425534969265251        5.2326242011784485     
  0.24959999999999999        5.5399999999999998E-002   5.6816946430733202        4.9729631430862682       0.87697955011192763        5.2311792094123799     
  0.27470000000000000        5.9659999999999998E-002   5.6766428389109800        4.9691633638596588       0.87695802682915525        5.2267169504234552     
  0.29970000000000002        6.3909999999999995E-002   5.6676685777781408        4.9640020646774401       0.87720823160356720        5.2192003793693367     
  0.32479999999999998        6.8150000000000002E-002   5.6540162069682616        4.9555663615747161       0.87638082453530852        5.2075667598232913     
  0.34980000000000000        7.2380000000000000E-002   5.6290797133645185        4.9400492029601049       0.87509880156833797        5.1863022578851199     
  0.37490000000000001        7.6579999999999995E-002   5.5948581459717195        4.9186936134916390       0.87266790601134980        5.1570786880593174     
  0.39989999999999998        8.0750000000000002E-002   5.5336444786785517        4.8805345160539044       0.86937714881242734        5.1048736761216489     
  0.42499999999999999        8.4860000000000005E-002   5.4324042780106021        4.8158367181329718       0.86326852198858595        5.0181335846361588     
  0.45000000000000001        8.8880000000000001E-002   5.2066771922671462        4.6701275546392749       0.85051236711770573        4.8245439246157993     
  0.47510000000000002        9.2649999999999996E-002   5.7197705769431417        4.9379394160007708       0.76175147950896571        5.2442855920916944     
  0.50009999999999999        9.5600000000000004E-002   5.6796992536381552        5.1710341988398048       0.30979778120916796        5.2633987035468692     
  0.52520000000000000        9.2619999999999994E-002   3.9579557628868236        3.8657591693825846      -0.14793235307619934        3.7376666988220077     
  0.55020000000000002        8.8830000000000006E-002   3.2808921306562535        3.3181643387533137      -0.30464069222496609        3.1339639141064848     
  0.57530000000000003        8.4820000000000007E-002   2.9512079244437928        3.0393984040505888      -0.37666252718281917        2.8382169262486134     
  0.60040000000000004        8.0710000000000004E-002   2.7841348398440791        2.8931897866996357      -0.41769279582167329        2.6876565452769814     
  0.62539999999999996        7.6539999999999997E-002   2.6971550474017616        2.8153955174914729      -0.44270349010982107        2.6091461953443460     
  0.65049999999999997        7.2330000000000005E-002   2.6482921036099705        2.7707983486844259      -0.45738059022858563        2.5648831711105706     
  0.67549999999999999        6.8099999999999994E-002   2.6196389784455509        2.7445967948138592      -0.46533329896717435        2.5388928686370882     
  0.70060000000000000        6.3860000000000000E-002   2.6013207989314009        2.7279210215118104      -0.46931334598095148        2.5221679967434536     
  0.72560000000000002        5.9610000000000003E-002   2.5874292004449639        2.7155795209783915      -0.47097703740576802        2.5094852694907499     
  0.75070000000000003        5.5350000000000003E-002   2.5795873398164839        2.7086532430863870      -0.47309314010430681        2.5023532934307102     
  0.77569999999999995        5.1090000000000003E-002   2.5730840238110813        2.7031204562910287      -0.47302631163611597        2.4964010908553265     
  0.80079999999999996        4.6840000000000000E-002   2.5702780141764956        2.7007343901170073      -0.47399894393701508        2.4938391925346055     
  0.82579999999999998        4.2580000000000000E-002   2.5715166192111263        2.7020582114624312      -0.47552827577221368        2.4950376518375741     
  0.85089999999999999        3.8339999999999999E-002   2.5751627254832701        2.7058222379257528      -0.47657995243375267        2.4984996228917731     
  0.87600000000000000        3.4110000000000001E-002   2.5802208040619421        2.7107486005111086      -0.47848340296624747        2.5032621269746675     
  0.90100000000000002        2.9909999999999999E-002   2.5916607804916865        2.7216751196471205      -0.48228356706574976        2.5140394407021649     
  0.92610000000000003        2.5739999999999999E-002   2.6140904850564977        2.7425362808776219      -0.48793833975488893        2.5350053728169879     
  0.95109999999999995        2.1669999999999998E-002   2.6658983054890553        2.7898768761319328      -0.50149683615840202        2.5835070131658076     
  0.97619999999999996        1.7760000000000001E-002   2.5996507661646802        2.7486525035410985      -0.46206282980315594        2.5259372694273496     
   1.0009999999999999        1.4370000000000001E-002   2.5621517121769961        2.6945314014101793      -0.35623667039238982        2.4807914863546299     
   1.0340000000000000        1.3290000000000000E-002   3.0121981844168482        3.0681981360847352      -0.25967560298376013        2.8886306782678486     
   1.0680000000000001        1.2860000000000000E-002   3.3400357074853191        3.3269343008935124      -0.17440878687445641        3.1838715765424306     
   1.1010000000000000        1.2610000000000000E-002   3.5336945777058335        3.4741371717278335      -0.10257591806937358        3.3562643858307664     
   1.1339999999999999        1.2449999999999999E-002   3.6374908054818644        3.5504372432566171       -4.9348795504842079E-002   3.4474732097780665     
   1.1670000000000000        1.2330000000000001E-002   3.6821495342309296        3.5834611185186831       -2.8077916379845712E-002   3.4866917146733121     
   1.2010000000000001        1.2239999999999999E-002   3.7089660068342667        3.6032318804609651       -1.8390846192332673E-002   3.5102077973190404     
   1.2340000000000000        1.2170000000000000E-002   3.7224497506137806        3.6129892667019616        1.9265912965564192E-003   3.5220288357676255     
   1.2669999999999999        1.2109999999999999E-002   3.7320367879460679        3.6198880061330594       -5.7234156238503966E-003   3.5304337073771443     
   1.3000000000000000        1.2060000000000000E-002   3.7308071652065355        3.6194732846877167       -1.4277371512048120E-003   3.5294849484021915     
   1.3340000000000001        1.2010000000000000E-002   3.7436398771741239        3.6286098038283794        2.3630998257163430E-003   3.5407073427158351     
   1.3670000000000000        1.1970000000000000E-002   3.7367622471452200        3.6240696601879958       -3.1538887178607644E-003   3.5347916789175251     
   1.3999999999999999        1.1930000000000000E-002   3.7316267527112914        3.6205265999023486       -5.1577859337759990E-003   3.5303328181278681     
   1.4330000000000001        1.1900000000000001E-002   3.7267019422855396        3.6171621780849690        9.4745160619948265E-003   3.5260680722848479     
   1.4670000000000001        1.1870000000000000E-002   3.7379874010148781        3.6252259554036144       -3.8646471274935575E-003   3.5359061823784677     
   1.5000000000000000        1.1830000000000000E-002   3.7379874010148781        3.6252259554036144       -3.8646471274935566E-003   3.5359061823784677     
 -0.50000000000000000        2.3910000000000001E-002   4.0000000000000000        4.0000000000000000        0.0000000000000000        3.7857142857142865     
 -0.46679999999999999        2.3970000000000002E-002   4.0040496798491256        4.0034564868918547       -1.3566209410911695E-004   3.7893830824913071     
 -0.43359999999999999        2.4039999999999999E-002   4.0014370900346785        4.0016963269947468       -9.0240121513811473E-004   3.7871545498484109     
 -0.40029999999999999        2.4109999999999999E-002   4.0011561395715578        4.0012884254825085        2.3929123308102912E-004   3.7868491618163072     
 -0.36709999999999998        2.4180000000000000E-002   4.0048724480907056        4.0042887260397571        2.4406248093794558E-004   3.7901593345685054     
 -0.33389999999999997        2.4260000000000000E-002   4.0075108468574934        4.0064805370467607       -8.7422345687959311E-004   3.7925255944540450     
 -0.30070000000000002        2.4350000000000000E-002   4.0122521542397536        4.0104508420553975       -8.3977569568060575E-004   3.7967919105992078     
 -0.26750000000000002        2.4459999999999999E-002   4.0170018777923167        4.0142273702022306       -8.4145979367819524E-004   3.8010088034069329     
 -0.23430000000000001        2.4580000000000001E-002   4.0222901036201035        4.0188333820944280       -8.6966735821055331E-004   3.8058169243182536     
 -0.20110000000000000        2.4719999999999999E-002   4.0277357555479876        4.0233496292803226       -1.0312600837977957E-003   3.8106970739936874     
 -0.16780000000000000        2.4910000000000002E-002   4.0422560256399578        4.0355150532523192       -1.3982004899065904E-003   3.8237751154242248     
 -0.13460000000000000        2.5139999999999999E-002   4.0581228355968770        4.0491729558335106       -6.6601539178148524E-004   3.8381483303298989     
 -0.10150000000000001        2.5460000000000000E-002   4.0787103108882201        4.0673255670090889        1.6540306752453402E-003   3.8568422227644650     
  -6.8269999999999997E-002   2.5930000000000002E-002   4.1006131336506630        4.0884820212276587        1.8491240087881559E-002   3.8767210935787140     
  -3.5090000000000003E-002   2.6730000000000000E-002   4.0643089575888141        4.0643426817056083        5.4139509164854459E-002   3.8457309740923535     
  -1.9330000000000000E-003   2.8379999999999999E-002   3.9515260801774632        3.9429822777605845       0.11207082759870442        3.7374411396789204     
   2.3230000000000001E-002   3.1280000000000002E-002   4.1979125060986338        4.1066448381906886       0.26168195006787220        3.9422942743584679     
   4.8379999999999999E-002   3.4790000000000001E-002   4.5460050011036799        4.3266319601262255       0.44875076311220391        4.2351445508805456     
   7.3499999999999996E-002   3.8570000000000000E-002   4.8964702750244653        4.5357359629655178       0.61358434221262603        4.5312136411747801     
   9.8610000000000003E-002   4.2490000000000000E-002   5.1927397956861965        4.7042027587813937       0.73272648851489475        4.7809698038460606     
  0.12370000000000000        4.6489999999999997E-002   5.4103155811576569        4.8234190893479010       0.80509680393329019        4.9633061420754636     
  0.14879999999999999        5.0540000000000002E-002   5.5573088587910684        4.9034840960047053       0.84362360381391865        5.0861414834812759     
  0.17390000000000000        5.4609999999999999E-002   5.6441472402169754        4.9494697314107041       0.86208333759053291        5.1585063965575007     
  0.19900000000000001        5.8709999999999998E-002   5.6977848475353126        4.9799139723131916       0.87361779739970380        5.2039860133951432     
  0.22409999999999999        6.2810000000000005E-002   5.7135844483049727        4.9868303887512315       0.87555006260241186        5.2171533932872061     
  0.24920000000000000        6.6909999999999997E-002   5.7266374503707462        4.9943589894723379       0.88173174682826527        5.2288354445783423     
  0.27429999999999999        7.1020000000000000E-002   5.7241586763063204        4.9919871653445771       0.87906768451828765        5.2269732298864815     
  0.29940000000000000        7.5100000000000000E-002   5.7225989651333693        4.9916218605484692       0.88210387743013297        5.2265616295823962     
  0.32450000000000001        7.9170000000000004E-002   5.7051632638164094        4.9799226053221819       0.87879568228861882        5.2121471220115003     
  0.34960000000000002        8.3210000000000006E-002   5.6933679582499499        4.9741119819000410       0.87975138153596921        5.2033801281290533     
  0.37469999999999998        8.7200000000000000E-002   5.6532317124115226        4.9489233100623897       0.87476478698898763        5.1701055211330846     
  0.39979999999999999        9.1120000000000007E-002   5.6077815260236736        4.9214355624980559       0.87345963788833136        5.1329875574977564     
  0.42490000000000000        9.4930000000000000E-002   5.5312065098701142        4.8733593448941903       0.85888085241968770        5.0690275880764171     
  0.45000000000000001        9.8530000000000006E-002   5.4537431868325408        4.8360384742916924       0.82049092678498203        5.0069101886686598     
  0.47520000000000001       0.10170000000000000        5.7158911640871191        4.9697639865720058       0.73266524883583883        5.2232358070726539     
  0.50029999999999997       0.10370000000000000        5.7306360797438591        5.1513876705972939       0.46863870092228888        5.2774829974419548     
  0.52539999999999998       0.10170000000000000        4.6235660086179653        4.3900995803377842        6.5443760672970136E-003   4.3184322648333699     
  0.55049999999999999        9.8460000000000006E-002   3.9252047195055924        3.8525905370395006      -0.25507619936469883        3.7045605517123508     
  0.57560000000000000        9.4850000000000004E-002   3.4958888589297641        3.5029394528741173      -0.39039898674546458        3.3244796668659107     
  0.60070000000000001        9.1039999999999996E-002   3.2169309417905816        3.2683676444966130      -0.45733765893735839        3.0760255664833096     
  0.62580000000000002        8.7110000000000007E-002   3.0256301262295731        3.1058230341280511      -0.48567893634445314        2.9049224707189385     
  0.65090000000000003        8.3119999999999999E-002   2.8858721885718537        2.9860645937746964      -0.49309233656328855        2.7791757365278849     
  0.67600000000000005        7.9079999999999998E-002   2.7861500507184354        2.9005377259752283      -0.49152937009052661        2.6891561957540322     
  0.70109999999999995        7.5009999999999993E-002   2.7168999215921632        2.8411183664939168      -0.48789577784209331        2.6265975137494304     
  0.72619999999999996        7.0919999999999997E-002   2.6716797633665519        2.8019127856356243      -0.48414319835367386        2.5855589871433451     
  0.75129999999999997        6.6820000000000004E-002   2.6438745086950615        2.7778204389187362      -0.48355316206613358        2.5604027110826286     
  0.77649999999999997        6.2710000000000002E-002   2.6243544813225324        2.7604716822703050      -0.48192499791769883        2.5425062377224381     
  0.80159999999999998        5.8610000000000002E-002   2.6132355466010693        2.7507378397545881      -0.48184844631060098        2.5323657390785850     