VARIABLES = "X" "Y" "J"
ZONE I=  71    J=   48
 -0.50000000000000000        0.0000000000000000        3.8919125000000003E-004
 -0.46670000000000000        0.0000000000000000        3.9202924999999988E-004
 -0.43330000000000002        0.0000000000000000        3.9286299999999997E-004
 -0.40000000000000002        0.0000000000000000        3.9310649999999995E-004
 -0.36670000000000003        0.0000000000000000        3.9519750000000019E-004
 -0.33329999999999999        0.0000000000000000        3.9653150000000021E-004
 -0.29999999999999999        0.0000000000000000        3.9776849999999990E-004
 -0.26669999999999999        0.0000000000000000        3.9986649999999987E-004
 -0.23330000000000001        0.0000000000000000        4.0186749999999988E-004
 -0.20000000000000001        0.0000000000000000        4.0359600000000010E-004
 -0.16669999999999999        0.0000000000000000        4.0703675000000009E-004
 -0.13330000000000000        0.0000000000000000        4.1120549999999984E-004
 -0.10000000000000001        0.0000000000000000        4.1610435000000005E-004
  -6.6669999999999993E-002   0.0000000000000000        4.2518792500000004E-004
  -3.3329999999999999E-002   0.0000000000000000        4.4118872499999989E-004
   0.0000000000000000        0.0000000000000000        4.2819694350000002E-004
   2.5000000000000001E-002   4.4099999999999999E-003   3.3798375000000002E-004
   5.0000000000000003E-002   8.8199999999999997E-003   3.2394710000000003E-004
   7.4999999999999997E-002   1.3230000000000000E-002   3.1505749999999994E-004
  0.10000000000000001        1.7639999999999999E-002   3.0839585000000023E-004
  0.12500000000000000        2.2050000000000000E-002   3.0242550000000016E-004
  0.14999999999999999        2.6460000000000001E-002   2.9814599999999968E-004
  0.17499999999999999        3.0870000000000002E-002   2.9323450000000013E-004
  0.20000000000000001        3.5279999999999999E-002   2.8983000000000041E-004
  0.22500000000000001        3.9690000000000003E-002   2.8504349999999981E-004
  0.25000000000000000        4.4100000000000000E-002   2.8163900000000014E-004
  0.27500000000000002        4.8509999999999998E-002   2.7722750000000002E-004
  0.29999999999999999        5.2920000000000002E-002   2.7357299999999912E-004
  0.32500000000000001        5.7329999999999999E-002   2.6866150000000040E-004
  0.34999999999999998        6.1740000000000003E-002   2.6450699999999960E-004
  0.37500000000000000        6.6150000000000000E-002   2.5859549999999966E-004
  0.40000000000000002        7.0559999999999998E-002   2.5294100000000078E-004
  0.42499999999999999        7.4969999999999995E-002   2.4477950000000010E-004
  0.45000000000000001        7.9380000000000006E-002   2.3562499999999980E-004
  0.47499999999999998        8.3790000000000003E-002   2.1868399999999943E-004
  0.50000000000000000        8.8200000000000001E-002   1.7625000000000035E-004
  0.52500000000000002        8.3790000000000003E-002   2.1850699999999978E-004
  0.55000000000000004        7.9380000000000006E-002   2.3466149999999962E-004
  0.57499999999999996        7.4969999999999995E-002   2.4532300000000058E-004
  0.59999999999999998        7.0559999999999998E-002   2.5348450000000153E-004
  0.62500000000000000        6.6150000000000000E-002   2.5926399999999939E-004
  0.65000000000000002        6.1740000000000003E-002   2.6467549999999981E-004
  0.67500000000000004        5.7329999999999999E-002   2.6882999999999839E-004
  0.69999999999999996        5.2920000000000002E-002   2.7374150000000048E-004
  0.72499999999999998        4.8509999999999998E-002   2.7752100000000122E-004
  0.75000000000000000        4.4100000000000000E-002   2.8180750000000073E-004
  0.77500000000000002        3.9690000000000003E-002   2.8511649999999949E-004
  0.80000000000000004        3.5279999999999999E-002   2.8990299999999858E-004
  0.82499999999999996        3.0870000000000002E-002   2.9330750000000020E-004
  0.84999999999999998        2.6460000000000001E-002   2.9834400000000041E-004
  0.87500000000000000        2.2050000000000000E-002   3.0338050000000029E-004
  0.90000000000000002        1.7639999999999999E-002   3.0853500000000008E-004
  0.92500000000000004        1.3230000000000000E-002   3.1485099999999897E-004
  0.94999999999999996        8.8199999999999997E-003   3.2363049999999973E-004
  0.97499999999999998        4.4099999999999999E-003   3.3791700000000030E-004
   1.0000000000000000        0.0000000000000000        4.2377749999999921E-004
   1.0329999999999999        0.0000000000000000        4.4303749999999965E-004
   1.0669999999999999        0.0000000000000000        4.2746000000000109E-004
   1.1000000000000001        0.0000000000000000        4.1233500000000033E-004
   1.1330000000000000        0.0000000000000000        4.1305499999999963E-004
   1.1670000000000000        0.0000000000000000        4.0903499999999976E-004
   1.2000000000000000        0.0000000000000000        3.9996000000000031E-004
   1.2330000000000001        0.0000000000000000        4.0367499999999966E-004
   1.2669999999999999        0.0000000000000000        4.0166499999999967E-004
   1.3000000000000000        0.0000000000000000        3.9418500000000029E-004
   1.3330000000000000        0.0000000000000000        3.9831499999999967E-004
   1.3670000000000000        0.0000000000000000        3.9697499999999966E-004
   1.3999999999999999        0.0000000000000000        3.8956500000000035E-004
   1.4330000000000001        0.0000000000000000        3.9463000000000106E-004
   1.4670000000000001        0.0000000000000000        3.9379249999999970E-004
   1.5000000000000000        0.0000000000000000        3.8041249999999838E-004
 -0.50000000000000000        1.1830000000000000E-002   3.9810149999999994E-004
 -0.46670000000000000        1.1870000000000000E-002   3.9910225000000001E-004
 -0.43340000000000001        1.1900000000000001E-002   3.9966950000000002E-004
 -0.40020000000000000        1.1930000000000000E-002   4.0083400000000003E-004
 -0.36690000000000000        1.1970000000000000E-002   4.0260500000000000E-004
 -0.33360000000000001        1.2010000000000000E-002   4.0394249999999997E-004
 -0.30030000000000001        1.2060000000000000E-002   4.0483625000000003E-004
 -0.26710000000000000        1.2109999999999999E-002   4.0666950000000003E-004
 -0.23380000000000001        1.2170000000000000E-002   4.0928949999999997E-004
 -0.20050000000000001        1.2239999999999999E-002   4.1101400000000002E-004
 -0.16730000000000000        1.2330000000000001E-002   4.1418650000000004E-004
 -0.13400000000000001        1.2449999999999999E-002   4.1867200000000003E-004
 -0.10070000000000000        1.2610000000000000E-002   4.2368085000000003E-004
  -6.7460000000000006E-002   1.2860000000000000E-002   4.3129742500000001E-004
  -3.4209999999999997E-002   1.3299999999999999E-002   4.4507320550000003E-004
  -9.5859999999999999E-004   1.4400000000000000E-002   4.1603080749999993E-004
   2.4119999999999999E-002   1.7809999999999999E-002   3.4011232050000002E-004
   4.9189999999999998E-002   2.1720000000000000E-002   3.2870497499999998E-004
   7.4249999999999997E-002   2.5800000000000000E-002   3.2060020000000005E-004
   9.9309999999999996E-002   2.9960000000000001E-002   3.1446197500000004E-004
  0.12440000000000000        3.4160000000000003E-002   3.0878965000000002E-004
  0.14940000000000001        3.8390000000000001E-002   3.0414299999999994E-004
  0.17449999999999999        4.2630000000000001E-002   2.9968099999999999E-004
  0.19950000000000001        4.6890000000000001E-002   2.9558825000000003E-004
  0.22459999999999999        5.1139999999999998E-002   2.9149274999999995E-004
  0.24959999999999999        5.5399999999999998E-002   2.8739925000000001E-004
  0.27470000000000000        5.9659999999999998E-002   2.8342700000000027E-004
  0.29970000000000002        6.3909999999999995E-002   2.7907799999999982E-004
  0.32479999999999998        6.8150000000000002E-002   2.7460474999999995E-004
  0.34980000000000000        7.2380000000000000E-002   2.6975475000000013E-004
  0.37490000000000001        7.6579999999999995E-002   2.6427899999999991E-004
  0.39989999999999998        8.0750000000000002E-002   2.5792800000000004E-004
  0.42499999999999999        8.4860000000000005E-002   2.5020225000000024E-004
  0.45000000000000001        8.8880000000000001E-002   2.3985375000000017E-004
  0.47510000000000002        9.2649999999999996E-002   2.2398674999999979E-004
  0.50009999999999999        9.5600000000000004E-002   1.9413974999999992E-004
  0.52520000000000000        9.2619999999999994E-002   2.2499975000000002E-004
  0.55020000000000002        8.8830000000000006E-002   2.3995200000000006E-004
  0.57530000000000003        8.4820000000000007E-002   2.5071200000000032E-004
  0.60040000000000004        8.0710000000000004E-002   2.5796099999999964E-004
  0.62539999999999996        7.6539999999999997E-002   2.6419999999999970E-004
  0.65049999999999997        7.2330000000000005E-002   2.6968350000000017E-004
  0.67549999999999999        6.8099999999999994E-002   2.7453625000000017E-004
  0.70060000000000000        6.3860000000000000E-002   2.7901200000000003E-004
  0.72560000000000002        5.9610000000000003E-002   2.8323825000000014E-004
  0.75070000000000003        5.5350000000000003E-002   2.8733699999999949E-004
  0.77569999999999995        5.1090000000000003E-002   2.9151674999999946E-004
  0.80079999999999996        4.6840000000000000E-002   2.9561225000000009E-004
  0.82579999999999998        4.2580000000000000E-002   2.9970350000000029E-004
  0.85089999999999999        3.8339999999999999E-002   3.0463500000000020E-004
  0.87600000000000000        3.4110000000000001E-002   3.0886275000000023E-004
  0.90100000000000002        2.9909999999999999E-002   3.1417875000000023E-004
  0.92610000000000003        2.5739999999999999E-002   3.2066299999999946E-004
  0.95109999999999995        2.1669999999999998E-002   3.2873549999999966E-004
  0.97619999999999996        1.7760000000000001E-002   3.3858524999999973E-004
   1.0009999999999999        1.4370000000000001E-002   4.1272100000000039E-004
   1.0340000000000000        1.3290000000000000E-002   4.4852500000000121E-004
   1.0680000000000001        1.2860000000000000E-002   4.3449999999999961E-004
   1.1010000000000000        1.2610000000000000E-002   4.2012999999999892E-004
   1.1339999999999999        1.2449999999999999E-002   4.1495000000000036E-004
   1.1670000000000000        1.2330000000000001E-002   4.1712750000000103E-004
   1.2010000000000001        1.2239999999999999E-002   4.1409999999999966E-004
   1.2340000000000000        1.2170000000000000E-002   4.0563499999999903E-004
   1.2669999999999999        1.2109999999999999E-002   4.0361750000000033E-004
   1.3000000000000000        1.2060000000000000E-002   4.0788750000000104E-004
   1.3340000000000001        1.2010000000000000E-002   4.0637749999999971E-004
   1.3670000000000000        1.1970000000000000E-002   3.9896999999999903E-004
   1.3999999999999999        1.1930000000000000E-002   3.9781500000000036E-004
   1.4330000000000001        1.1900000000000001E-002   4.0268500000000104E-004
   1.4670000000000001        1.1870000000000000E-002   4.0149749999999975E-004
   1.5000000000000000        1.1830000000000000E-002   3.8853749999999838E-004
 -0.50000000000000000        2.3910000000000001E-002   4.0504000000000007E-004
 -0.46679999999999999        2.3970000000000002E-002   4.0587325000000009E-004
 -0.43359999999999999        2.4039999999999999E-002   4.0765550000000005E-004
 -0.40029999999999999        2.4109999999999999E-002   4.0898550000000001E-004
 -0.36709999999999998        2.4180000000000000E-002   4.0953700000000007E-004
 -0.33389999999999997        2.4260000000000000E-002   4.1087549999999979E-004
 -0.30070000000000002        2.4350000000000000E-002   4.1237899999999977E-004
 -0.26750000000000002        2.4459999999999999E-002   4.1421600000000018E-004
 -0.23430000000000001        2.4580000000000001E-002   4.1622050000000014E-004
 -0.20110000000000000        2.4719999999999999E-002   4.1937324999999999E-004
 -0.16780000000000000        2.4910000000000002E-002   4.2223474999999994E-004
 -0.13460000000000000        2.5139999999999999E-002   4.2483025000000004E-004
 -0.10150000000000001        2.5460000000000000E-002   4.3028047499999995E-004
  -6.8269999999999997E-002   2.5930000000000002E-002   4.3815942499999990E-004
  -3.5090000000000003E-002   2.6730000000000000E-002   4.4869915749999996E-004
  -1.9330000000000000E-003   2.8379999999999999E-002   4.0784783000000007E-004
   2.3230000000000001E-002   3.1280000000000002E-002   3.4287459749999995E-004
   4.8379999999999999E-002   3.4790000000000001E-002   3.3376549999999993E-004
   7.3499999999999996E-002   3.8570000000000000E-002   3.2628162499999998E-004
   9.8610000000000003E-002   4.2490000000000000E-002   3.2003600000000000E-004
  0.12370000000000000        4.6489999999999997E-002   3.1479804999999989E-004
  0.14879999999999999        5.0540000000000002E-002   3.1003649999999998E-004
  0.17390000000000000        5.4609999999999999E-002   3.0570575000000007E-004
  0.19900000000000001        5.8709999999999998E-002   3.0128799999999992E-004
  0.22409999999999999        6.2810000000000005E-002   2.9752300000000000E-004
  0.24920000000000000        6.6909999999999997E-002   2.9322424999999989E-004
  0.27429999999999999        7.1020000000000000E-002   2.8920474999999987E-004
  0.29940000000000000        7.5100000000000000E-002   2.8464875000000029E-004
  0.32450000000000001        7.9170000000000004E-002   2.8025125000000000E-004
  0.34960000000000002        8.3210000000000006E-002   2.7494524999999989E-004
  0.37469999999999998        8.7200000000000000E-002   2.6966524999999986E-004
  0.39979999999999999        9.1120000000000007E-002   2.6311575000000006E-004
  0.42490000000000000        9.4930000000000000E-002   2.5545225000000006E-004
  0.45000000000000001        9.8530000000000006E-002   2.4529475000000000E-004
  0.47520000000000001       0.10170000000000000        2.3187949999999992E-004
  0.50029999999999997       0.10370000000000000        2.1209499999999985E-004
  0.52539999999999998       0.10170000000000000        2.3119300000000012E-004
  0.55049999999999999        9.8460000000000006E-002   2.4520474999999983E-004
  0.57560000000000000        9.4850000000000004E-002   2.5562699999999986E-004
  0.60070000000000001        9.1039999999999996E-002   2.6352399999999990E-004
  0.62580000000000002        8.7110000000000007E-002   2.6965200000000022E-004
  0.65090000000000003        8.3119999999999999E-002   2.7527125000000003E-004
  0.67600000000000005        7.9079999999999998E-002   2.8026099999999964E-004
  0.70109999999999995        7.5009999999999993E-002   2.8486999999999946E-004
  0.72619999999999996        7.0919999999999997E-002   2.8930374999999996E-004
  0.75129999999999997        6.6820000000000004E-002   2.9390524999999988E-004
  0.77649999999999997        6.2710000000000002E-002   2.9821400000000015E-004
  0.80159999999999998        5.8610000000000002E-002   3.0159350000000029E-004
  0.82669999999999999        5.4510000000000003E-002   3.0580600000000015E-004
  0.85180000000000000        5.0430000000000003E-002   3.1012500000000018E-004
  0.87690000000000001        4.6390000000000001E-002   3.1480800000000008E-004
  0.90200000000000002        4.2389999999999997E-002   3.2079650000000004E-004
  0.92720000000000002        3.8469999999999997E-002   3.2690400000000009E-004
  0.95230000000000004        3.4700000000000002E-002   3.3354850000000025E-004
  0.97740000000000005        3.1199999999999999E-002   3.4566674999999912E-004
   1.0029999999999999        2.8330000000000001E-002   4.1019799999999996E-004
   1.0360000000000000        2.6710000000000001E-002   4.4664750000000038E-004
   1.0690000000000000        2.5919999999999999E-002   4.3507500000000042E-004
   1.1020000000000001        2.5450000000000000E-002   4.2807000000000045E-004
   1.1350000000000000        2.5139999999999999E-002   4.2283999999999893E-004
   1.1679999999999999        2.4899999999999999E-002   4.1914500000000032E-004
   1.2010000000000001        2.4719999999999999E-002   4.2234750000000104E-004
   1.2350000000000001        2.4580000000000001E-002   4.1981999999999968E-004
   1.2680000000000000        2.4459999999999999E-002   4.1156749999999898E-004
   1.3009999999999999        2.4350000000000000E-002   4.0991000000000036E-004
   1.3340000000000001        2.4260000000000000E-002   4.0837500000000037E-004
   1.3670000000000000        2.4180000000000000E-002   4.0709249999999894E-004
   1.3999999999999999        2.4109999999999999E-002   4.1208499999999970E-004
   1.4339999999999999        2.4039999999999999E-002   4.1074500000000104E-004
   1.4670000000000001        2.3970000000000002E-002   4.0342500000000033E-004
   1.5000000000000000        2.3910000000000001E-002   4.0259999999999764E-004
 -0.50000000000000000        3.6229999999999998E-002   4.1379625000000005E-004
 -0.46679999999999999        3.6319999999999998E-002   4.1388250000000008E-004
 -0.43369999999999997        3.6420000000000001E-002   4.1488274999999987E-004
 -0.40050000000000002        3.6530000000000000E-002   4.1668199999999971E-004
 -0.36730000000000002        3.6639999999999999E-002   4.1738725000000016E-004
 -0.33420000000000000        3.6760000000000001E-002   4.1872350000000019E-004
 -0.30099999999999999        3.6900000000000002E-002   4.2039449999999978E-004
 -0.26790000000000003        3.7060000000000003E-002   4.2190175000000001E-004
 -0.23469999999999999        3.7240000000000002E-002   4.2391275000000018E-004
 -0.20160000000000000        3.7460000000000000E-002   4.2578599999999988E-004
 -0.16850000000000001        3.7719999999999997E-002   4.2932499999999993E-004
 -0.13530000000000000        3.8070000000000000E-002   4.3306025000000006E-004
 -0.10220000000000000        3.8539999999999998E-002   4.3725172500000002E-004
  -6.9089999999999999E-002   3.9219999999999998E-002   4.4383229999999985E-004
  -3.5990000000000001E-002   4.0289999999999999E-002   4.5214131250000003E-004
  -2.9210000000000000E-003   4.2220000000000001E-002   4.0562191250000004E-004
   2.2320000000000000E-002   4.4839999999999998E-002   3.4597707749999999E-004
   4.7550000000000002E-002   4.8039999999999999E-002   3.3876729999999996E-004
   7.2730000000000003E-002   5.1549999999999999E-002   3.3212639999999994E-004
   9.7909999999999997E-002   5.5239999999999997E-002   3.2653805000000009E-004
  0.12310000000000000        5.9040000000000002E-002   3.2082520000000002E-004
  0.14820000000000000        6.2899999999999998E-002   3.1632874999999982E-004
  0.17340000000000000        6.6809999999999994E-002   3.1242650000000004E-004
  0.19860000000000000        7.0749999999999993E-002   3.0747350000000006E-004
  0.22370000000000001        7.4700000000000003E-002   3.0337999999999996E-004
  0.24890000000000001        7.8649999999999998E-002   2.9940825000000006E-004
  0.27400000000000002        8.2589999999999997E-002   2.9505675000000007E-004
  0.29920000000000002        8.6510000000000004E-002   2.9070424999999979E-004
  0.32429999999999998        9.0399999999999994E-002   2.8660274999999977E-004
  0.34949999999999998        9.4240000000000004E-002   2.8086825000000001E-004
  0.37459999999999999        9.8019999999999996E-002   2.7576550000000003E-004
  0.39979999999999999       0.10170000000000000        2.6903300000000001E-004
  0.42490000000000000       0.10520000000000000        2.6118275000000003E-004
  0.45010000000000000       0.10840000000000000        2.5097524999999994E-004
  0.47520000000000001       0.11110000000000000        2.3882249999999984E-004
  0.50039999999999996       0.11250000000000000        2.2806749999999983E-004
  0.52559999999999996       0.11100000000000000        2.3934500000000018E-004
  0.55069999999999997       0.10829999999999999        2.5148300000000010E-004
  0.57589999999999997       0.10510000000000000        2.6119500000000009E-004
  0.60109999999999997       0.10160000000000000        2.6860450000000015E-004
  0.62619999999999998        9.7900000000000001E-002   2.7550524999999998E-004
  0.65139999999999998        9.4119999999999995E-002   2.8082100000000011E-004
  0.67649999999999999        9.0270000000000003E-002   2.8657500000000001E-004
  0.70169999999999999        8.6379999999999998E-002   2.9164200000000027E-004
  0.72689999999999999        8.2449999999999996E-002   2.9542950000000027E-004
  0.75200000000000000        7.8509999999999996E-002   2.9965725000000008E-004
  0.77720000000000000        7.4560000000000001E-002   3.0415700000000005E-004
  0.80240000000000000        7.0610000000000006E-002   3.0784825000000008E-004
  0.82750000000000001        6.6669999999999993E-002   3.1205250000000017E-004
  0.85270000000000001        6.2759999999999996E-002   3.1711499999999998E-004
  0.87790000000000001        5.8889999999999998E-002   3.2185899999999997E-004
  0.90310000000000001        5.5090000000000000E-002   3.2687024999999997E-004
  0.92830000000000001        5.1400000000000001E-002   3.3243650000000003E-004
  0.95350000000000001        4.7899999999999998E-002   3.3807875000000005E-004
  0.97860000000000003        4.4729999999999999E-002   3.4636874999999988E-004
   1.0040000000000000        4.2139999999999997E-002   4.0549199999999927E-004
   1.0369999999999999        4.0250000000000001E-002   4.5060500000000041E-004
   1.0700000000000001        3.9190000000000003E-002   4.4223500000000040E-004
   1.1030000000000000        3.8530000000000002E-002   4.3583499999999895E-004
   1.1359999999999999        3.8059999999999997E-002   4.3105500000000039E-004
   1.1690000000000000        3.7719999999999997E-002   4.2749000000000042E-004
   1.2020000000000000        3.7449999999999997E-002   4.2462500000000036E-004
   1.2350000000000001        3.7229999999999999E-002   4.2200500000000036E-004
   1.2680000000000000        3.7050000000000000E-002   4.2000749999999900E-004
   1.3009999999999999        3.6900000000000002E-002   4.1834750000000040E-004
   1.3340000000000001        3.6760000000000001E-002   4.2317000000000109E-004
   1.3680000000000001        3.6639999999999999E-002   4.2182249999999966E-004
   1.4010000000000000        3.6530000000000000E-002   4.1420499999999893E-004
   1.4339999999999999        3.6420000000000001E-002   4.1299500000000042E-004
   1.4670000000000001        3.6319999999999998E-002   4.1184000000000034E-004
   1.5000000000000000        3.6229999999999998E-002   4.1068499999999766E-004
 -0.50000000000000000        4.8800000000000003E-002   4.2070100000000065E-004
 -0.46689999999999998        4.8939999999999997E-002   4.2203849999999991E-004
 -0.43380000000000002        4.9070000000000003E-002   4.2303149999999988E-004
 -0.40070000000000000        4.9209999999999997E-002   4.2420550000000026E-004
 -0.36759999999999998        4.9360000000000001E-002   4.2553924999999993E-004
 -0.33450000000000002        4.9520000000000002E-002   4.2687699999999977E-004
 -0.30140000000000000        4.9709999999999997E-002   4.2839200000000020E-004
 -0.26829999999999998        4.9910000000000003E-002   4.3005699999999997E-004
 -0.23519999999999999        5.0150000000000000E-002   4.3208749999999968E-004
 -0.20210000000000000        5.0439999999999999E-002   4.3379475000000008E-004
 -0.16910000000000000        5.0799999999999998E-002   4.3666825000000011E-004
 -0.13600000000000001        5.1249999999999997E-002   4.4026299999999998E-004
 -0.10299999999999999        5.1850000000000000E-002   4.4443615000000009E-004
  -6.9919999999999996E-002   5.2699999999999997E-002   4.4997615000000004E-004
  -3.6909999999999998E-002   5.3980000000000000E-002   4.5594560500000005E-004
  -3.9220000000000001E-003   5.6050000000000003E-002   4.0672111249999990E-004
   2.1409999999999998E-002   5.8490000000000000E-002   3.4976151500000003E-004
   4.6719999999999998E-002   6.1449999999999998E-002   3.4383329999999993E-004
   7.1959999999999996E-002   6.4729999999999996E-002   3.3774030000000005E-004
   9.7189999999999999E-002   6.8210000000000007E-002   3.3242640000000001E-004
  0.12239999999999999        7.1809999999999999E-002   3.2739097500000006E-004
  0.14760000000000001        7.5509999999999994E-002   3.2341200000000008E-004
  0.17290000000000000        7.9250000000000001E-002   3.1907900000000000E-004
  0.19810000000000000        8.3019999999999997E-002   3.1424400000000009E-004
  0.22330000000000000        8.6809999999999998E-002   3.1002974999999990E-004
  0.24850000000000000        9.0609999999999996E-002   3.0580600000000010E-004
  0.27370000000000000        9.4390000000000002E-002   3.0132375000000003E-004
  0.29890000000000000        9.8140000000000005E-002   2.9710050000000002E-004
  0.32410000000000000       0.10190000000000000        2.9179600000000004E-004
  0.34930000000000000       0.10550000000000000        2.8749599999999993E-004
  0.37450000000000000       0.10910000000000000        2.8107800000000009E-004
  0.39970000000000000       0.11250000000000000        2.7500999999999996E-004
  0.42490000000000000       0.11570000000000000        2.6712000000000014E-004
  0.45010000000000000       0.11849999999999999        2.5829999999999988E-004
  0.47530000000000000       0.12070000000000000        2.4854750000000017E-004
  0.50060000000000004       0.12180000000000001        2.4113750000000011E-004
  0.52580000000000005       0.12070000000000000        2.4856000000000015E-004
  0.55100000000000005       0.11840000000000001        2.5908000000000013E-004
  0.57620000000000005       0.11550000000000001        2.6803500000000007E-004
  0.60140000000000005       0.11230000000000000        2.7457500000000021E-004
  0.62660000000000005       0.10890000000000000        2.8311249999999998E-004
  0.65190000000000003       0.10530000000000000        2.8795500000000006E-004
  0.67710000000000004       0.10170000000000000        2.9219374999999993E-004
  0.70230000000000004        9.7970000000000002E-002   2.9733899999999993E-004
  0.72750000000000004        9.4210000000000002E-002   3.0151200000000004E-004
  0.75270000000000004        9.0429999999999996E-002   3.0618699999999992E-004
  0.77790000000000004        8.6629999999999999E-002   3.1076999999999976E-004
  0.80320000000000003        8.2839999999999997E-002   3.1499174999999996E-004
  0.82840000000000003        7.9060000000000005E-002   3.1876200000000016E-004
  0.85360000000000003        7.5319999999999998E-002   3.2369925000000008E-004
  0.87890000000000001        7.1629999999999999E-002   3.2823874999999989E-004
  0.90410000000000001        6.8019999999999997E-002   3.3298224999999998E-004
  0.92940000000000000        6.4540000000000000E-002   3.3831174999999987E-004
  0.95460000000000000        6.1280000000000001E-002   3.4383149999999991E-004
  0.97989999999999999        5.8349999999999999E-002   3.4845249999999910E-004
   1.0049999999999999        5.5950000000000000E-002   4.0455250000000030E-004
   1.0380000000000000        5.3929999999999999E-002   4.5539000000000050E-004
   1.0710000000000000        5.2670000000000002E-002   4.4919000000000046E-004
   1.1040000000000001        5.1830000000000001E-002   4.4374000000000025E-004
   1.1370000000000000        5.1240000000000001E-002   4.3941999999999891E-004
   1.1699999999999999        5.0790000000000002E-002   4.3600000000000041E-004
   1.2030000000000001        5.0439999999999999E-002   4.3328000000000035E-004
   1.2360000000000000        5.0150000000000000E-002   4.3091499999999889E-004
   1.2689999999999999        4.9910000000000003E-002   4.2878250000000039E-004
   1.3020000000000000        4.9700000000000001E-002   4.2711750000000041E-004
   1.3350000000000000        4.9520000000000002E-002   4.2562000000000025E-004
   1.3680000000000001        4.9360000000000001E-002   4.2421500000000046E-004
   1.4010000000000000        4.9209999999999997E-002   4.2289499999999898E-004
   1.4339999999999999        4.9070000000000003E-002   4.2174000000000036E-004
   1.4670000000000001        4.8930000000000001E-002   4.2075000000000039E-004
   1.5000000000000000        4.8800000000000003E-002   4.1942999999999766E-004
 -0.50000000000000000        6.1650000000000003E-002   4.2802049999999929E-004
 -0.46700000000000003        6.1820000000000000E-002   4.3031925000000006E-004
 -0.43390000000000001        6.1980000000000000E-002   4.3148475000000019E-004
 -0.40089999999999998        6.2160000000000000E-002   4.3265224999999998E-004
 -0.36780000000000002        6.2350000000000003E-002   4.3399525000000004E-004
 -0.33479999999999999        6.2549999999999994E-002   4.3467449999999992E-004
 -0.30180000000000001        6.2780000000000002E-002   4.3684149999999999E-004
 -0.26869999999999999        6.3039999999999999E-002   4.3853424999999995E-004
 -0.23569999999999999        6.3339999999999994E-002   4.3988999999999991E-004
 -0.20269999999999999        6.3700000000000007E-002   4.4227199999999990E-004
 -0.16969999999999999        6.4130000000000006E-002   4.4480700000000013E-004
 -0.13669999999999999        6.4689999999999998E-002   4.4809300000000005E-004
 -0.10370000000000000        6.5409999999999996E-002   4.5160244999999994E-004
  -7.0770000000000000E-002   6.6400000000000001E-002   4.5579785000000010E-004
  -3.7839999999999999E-002   6.7830000000000001E-002   4.6036269500000012E-004
  -4.9360000000000003E-003   6.9959999999999994E-002   4.0977651000000001E-004
   2.0480000000000002E-002   7.2270000000000001E-002   3.5446047999999994E-004
   4.5870000000000001E-002   7.5039999999999996E-002   3.4939674999999996E-004
   7.1179999999999993E-002   7.8109999999999999E-002   3.4393569999999999E-004
   9.6470000000000000E-002   8.1400000000000000E-002   3.3931209999999996E-004
  0.12180000000000001        8.4830000000000003E-002   3.3411127499999999E-004
  0.14699999999999999        8.8340000000000002E-002   3.2898825000000014E-004
  0.17230000000000001        9.1920000000000002E-002   3.2663249999999994E-004
  0.19760000000000000        9.5540000000000000E-002   3.2097249999999994E-004