VARIABLES = "X" "Y" "Ust1" "Ust2" "Ust3" "Ust4"
ZONE I=  71    J=   48
 -0.50000000000000000        0.0000000000000000        3.9999999999999991        3.9999999999999991       -0.0000000000000000        6.7773813390441092E+204
 -0.46670000000000000        0.0000000000000000       0.16108833714292856        6.7195089446565271E+097   0.0000000000000000        2.7283106916874773E+203
 -0.43330000000000002        0.0000000000000000       0.18561957590376657        2.7788243151081836E+098   0.0000000000000000        3.1404615889528029E+203
 -0.40000000000000002        0.0000000000000000       0.18928446316365488        2.8075105546982541E+098   0.0000000000000000        3.2014148558075058E+203
 -0.36670000000000003        0.0000000000000000       0.19096027170045518        3.7728607790590048E+098   0.0000000000000000        3.2284506047280231E+203
 -0.33329999999999999        0.0000000000000000       0.19401292382275984        5.7433420560969876E+098   0.0000000000000000        3.2752940896833461E+203
 -0.29999999999999999        0.0000000000000000       0.19779724601064902        6.7881394809634515E+098   0.0000000000000000        3.3377068982601656E+203
 -0.26669999999999999        0.0000000000000000       0.20153659311795927        7.8479914345213507E+098   0.0000000000000000        3.3968738783893625E+203
 -0.23330000000000001        0.0000000000000000       0.20624790056646750        9.9224350481749282E+098   0.0000000000000000        3.4709019262403951E+203
 -0.20000000000000001        0.0000000000000000       0.21231754483746024        1.1059221768487956E+099   0.0000000000000000        3.5710885417862603E+203
 -0.16669999999999999        0.0000000000000000       0.21935087050998667        1.1147223441401534E+099   0.0000000000000000        3.6848471778063649E+203
 -0.13330000000000000        0.0000000000000000       0.22716860768645381        1.3254000699523620E+099   0.0000000000000000        3.8103585690343578E+203
 -0.10000000000000001        0.0000000000000000       0.23889969635836916        1.5361455750414154E+099   0.0000000000000000        4.0069759442068455E+203
  -6.6669999999999993E-002   0.0000000000000000       0.25794365076885334        1.6191777011429877E+099   0.0000000000000000        4.3243600971460025E+203
  -3.3329999999999999E-002   0.0000000000000000       0.29011966499036568        1.5258962062424685E+099   0.0000000000000000        4.8693607049158793E+203
   0.0000000000000000        0.0000000000000000       0.39824170835318878       -3.7321362020388630E+098  -2.8216562062388798E+097   6.7791300681070310E+203
   2.5000000000000001E-002   4.4099999999999999E-003  0.32658492361426872       -3.5946147696117279E+099  -6.3409004535950868E+098   5.4768207169476535E+203
   5.0000000000000003E-002   8.8199999999999997E-003  0.27046087108499922       -3.3609112331716914E+099  -5.9286474153148657E+098   4.5213228724012489E+203
   7.4999999999999997E-002   1.3230000000000000E-002  0.24268266773364044       -3.2337307204088456E+099  -5.7043009908012046E+098   4.0456564137153599E+203
  0.10000000000000001        1.7639999999999999E-002  0.22298694613846695       -3.1394998458477243E+099  -5.5380777280753861E+098   3.7065678071548304E+203
  0.12500000000000000        2.2050000000000000E-002  0.20727081430259187       -3.0465961436022445E+099  -5.3741955973143611E+098   3.4318537084343979E+203
  0.14999999999999999        2.6460000000000001E-002  0.19329635738479700       -2.9751224802426779E+099  -5.2481160551480856E+098   3.1963430220202098E+203
  0.17499999999999999        3.0870000000000002E-002  0.18123916751640973       -2.9035149291492300E+099  -5.1218003350192386E+098   2.9826276401867741E+203
  0.20000000000000001        3.5279999999999999E-002  0.16977671739264999       -2.8452764387732814E+099  -5.0190676379960670E+098   2.7900065945004069E+203
  0.22500000000000001        3.9690000000000003E-002  0.15962723763328326       -2.7792072404586537E+099  -4.9025215721690667E+098   2.6082906390377072E+203
  0.25000000000000000        4.4100000000000000E-002  0.14868054231474989       -2.7043337419188223E+099  -4.7704447207447971E+098   2.4249501766473826E+203
  0.27500000000000002        4.8509999999999998E-002  0.13946112960914769       -2.6360946290428061E+099  -4.6500709256315121E+098   2.2598086992651448E+203
  0.29999999999999999        5.2920000000000002E-002  0.12863473855122834       -2.5392967107533128E+099  -4.4793193977688455E+098   2.0792748656883620E+203
  0.32500000000000001        5.7329999999999999E-002  0.11889560952076471       -2.4410781682007812E+099  -4.3060618887061799E+098   1.9073986901982091E+203
  0.34999999999999998        6.1740000000000003E-002  0.10776111278868002       -2.3157895907698700E+099  -4.0850528381180527E+098   1.7227469214350469E+203
  0.37500000000000000        6.6150000000000000E-002   9.6797983965309753E-002  -2.1698004300578194E+099  -3.8275279586219877E+098   1.5333461569712499E+203
  0.40000000000000002        7.0559999999999998E-002   8.3874627990128972E-002  -1.9782242922637194E+099  -3.4895876515531995E+098   1.3214268137033075E+203
  0.42499999999999999        7.4969999999999995E-002   7.0265999669527193E-002  -1.7431325544849917E+099  -3.0748858261115286E+098   1.0932702348773537E+203
  0.45000000000000001        7.9380000000000006E-002   5.4263943082135509E-002  -1.4448434957611569E+099  -2.5487039265226837E+098   8.3441001577025465E+202
  0.47499999999999998        8.3790000000000003E-002   3.8174875438976158E-002  -1.1431518184312939E+099  -2.0165198077128013E+098   5.6638259842957451E+202
  0.50000000000000000        8.8200000000000001E-002   8.8658205347578716E-003  -2.5464575766785993E+097  -0.0000000000000000        1.5028854092878260E+202
  0.52500000000000002        8.3790000000000003E-002   2.7171021834868522E-002   5.3701631544228877E+098  -9.4729678044019604E+097   4.2162151995391291E+202
  0.55000000000000004        7.9380000000000006E-002   4.8928419019040006E-002   9.6690522023285817E+098  -1.7056208084907656E+098   7.5809827307264610E+202
  0.57499999999999996        7.4969999999999995E-002   6.5938388056235184E-002   1.2570785248752221E+099  -2.2174865178798972E+098   1.0310259452336853E+203
  0.59999999999999998        7.0559999999999998E-002   7.9509693834836900E-002   1.4678682832068013E+099  -2.5893196515767936E+098   1.2528952116984045E+203
  0.62500000000000000        6.6150000000000000E-002   9.2141359472273504E-002   1.6340292451217848E+099  -2.8824275883948238E+098   1.4567217048439051E+203
  0.65000000000000002        6.1740000000000003E-002  0.10288868498140082        1.7586980040008205E+099  -3.1023432790574448E+098   1.6384244693968365E+203
  0.67500000000000004        5.7329999999999999E-002  0.11362041097159292        1.8588181197555215E+099  -3.2789551632487448E+098   1.8148648424431910E+203
  0.69999999999999996        5.2920000000000002E-002  0.12293501404069655        1.9336045998743485E+099  -3.4108785141783556E+098   1.9764030078462663E+203
  0.72499999999999998        4.8509999999999998E-002  0.13298483717803844        2.0028173967177383E+099  -3.5329698878100878E+098   2.1425223597799207E+203
  0.75000000000000000        4.4100000000000000E-002  0.14224260299930674        2.0608317458762359E+099  -3.6353071997256749E+098   2.3056976003096660E+203
  0.77500000000000002        3.9690000000000003E-002  0.15267605512181723        2.0286624493268685E+099  -3.5785605606125927E+098   2.4854744546313844E+203
  0.80000000000000004        3.5279999999999999E-002  0.16163461700486845        2.0609782066342877E+099  -3.6355655565028881E+098   2.6445848469360902E+203
  0.82499999999999996        3.0870000000000002E-002  0.17210419191258006        2.0888196786305120E+099  -3.6846779131042274E+098   2.8211457821074988E+203
  0.84999999999999998        2.6460000000000001E-002  0.18260508461157759        2.1016454314647504E+099  -3.7073025411038170E+098   3.0077739382483925E+203
  0.87500000000000000        2.2050000000000000E-002  0.19439937566256188        2.1370012560989110E+099  -3.7696702157584760E+098   3.2150442303176225E+203
  0.90000000000000002        1.7639999999999999E-002  0.20978851897241743        2.1818506210688905E+099  -3.8487844955655194E+098   3.4730141495003507E+203
  0.92500000000000004        1.3230000000000000E-002  0.22717757138765926        2.1127871980021586E+099  -3.7269566172758124E+098   3.7831281574120842E+203
  0.94999999999999996        8.8199999999999997E-003  0.25096886627448500        2.1197891378076440E+099  -3.7393080390926896E+098   4.1836345053338520E+203
  0.97499999999999998        4.4099999999999999E-003  0.29492348522044881        2.0227814409130921E+099  -3.5681864617706917E+098   4.9391277536668375E+203
   1.0000000000000000        0.0000000000000000       0.39388350205039058       -1.2968380831693401E+099   9.8604412875461983E+097   6.7334776511409663E+203
   1.0329999999999999        0.0000000000000000       0.29498122687510903       -3.5338590541118561E+099  -0.0000000000000000        5.0042471782072080E+203
   1.0669999999999999        0.0000000000000000       0.25636483589692105       -2.2156205327992738E+099  -0.0000000000000000        4.3358452473966120E+203
   1.1000000000000001        0.0000000000000000       0.23970965635951849       -2.1899253232386249E+099  -0.0000000000000000        4.0518619085119704E+203
   1.1330000000000000        0.0000000000000000       0.22010311942795277       -2.1102648858837357E+099  -0.0000000000000000        3.7180771233276341E+203
   1.1670000000000000        0.0000000000000000       0.21576862178654163       -1.0162263722169164E+099  -0.0000000000000000        3.6471738663362351E+203
   1.2000000000000000        0.0000000000000000       0.22299893127679538       -1.0566797089990725E+099  -0.0000000000000000        3.7426650275026932E+203
   1.2330000000000001        0.0000000000000000       0.20099790771520012       -2.0385065507144720E+099  -0.0000000000000000        3.4054598837074487E+203
   1.2669999999999999        0.0000000000000000       0.19568772711311488       -9.8694332654777454E+098  -0.0000000000000000        3.3196781011098779E+203
   1.3000000000000000        0.0000000000000000       0.19872430813431283       -9.8044178305447291E+098  -0.0000000000000000        3.3715585974631208E+203
   1.3330000000000000        0.0000000000000000       0.19341254524348686       -9.7502560750330365E+098  -0.0000000000000000        3.2488110138888758E+203
   1.3670000000000000        0.0000000000000000       0.18709656627058480        1.1467791813628687E+097   0.0000000000000000        3.1655955431495581E+203
   1.3999999999999999        0.0000000000000000       0.19525909580549389        1.0827155636148426E+097   0.0000000000000000        3.3037125835331813E+203
   1.4330000000000001        0.0000000000000000       0.18558717706455882       -9.5633840192123815E+098  -0.0000000000000000        3.1484401817935967E+203
   1.4670000000000001        0.0000000000000000       0.18064455817956854        9.4685078209121262E+096   0.0000000000000000        3.0605842465343706E+203
   1.5000000000000000        0.0000000000000000       0.18064455817956854        9.4685078209121262E+096   0.0000000000000000        3.0605842465343706E+203
 -0.50000000000000000        1.1830000000000000E-002   4.0000000000000000        4.0000000000000000        0.0000000000000000        3.7857142857142865     
 -0.46670000000000000        1.1870000000000000E-002  0.32722251251168594       -1.9385188184273343E+097   2.4007195296548434E+100   1.4884358035615644E+201
 -0.43340000000000001        1.1900000000000001E-002  0.37628975279258053       -1.0755824299398979E+097   2.7577751435667817E+100   1.7105222347175384E+201
 -0.40020000000000000        1.1930000000000000E-002  0.38459921617458864       -1.1209052204461421E+097   2.8027477222227982E+100   1.7254399735145742E+201
 -0.36690000000000000        1.1970000000000000E-002  0.38821352023721578       -1.2483426400843439E+097   2.8193259245462371E+100   1.7285976757368455E+201
 -0.33360000000000001        1.2010000000000000E-002  0.39491500271231761       -1.3658934408466301E+097   2.8525565463714572E+100   1.7368973350833834E+201
 -0.30030000000000001        1.2060000000000000E-002  0.40254353860834974       -1.5156902227638548E+097   2.8971975019288651E+100   1.7574146811413069E+201
 -0.26710000000000000        1.2109999999999999E-002  0.40993028587779462       -1.6522187048751520E+097   2.9388437548939834E+100   1.7758221765818618E+201
 -0.23380000000000001        1.2170000000000000E-002  0.42000822184416609       -1.9939832097463170E+097   2.9881214826567340E+100   1.7885057216312203E+201
 -0.20050000000000001        1.2239999999999999E-002  0.43296980701021048       -2.6287242662264379E+097   3.0593491008952930E+100   1.8157941860197956E+201
 -0.16730000000000000        1.2330000000000001E-002  0.44865806221679938       -3.7328597772432983E+097   3.1389407651383253E+100   1.8404913578126067E+201
 -0.13400000000000001        1.2449999999999999E-002  0.46697774975112000       -5.2945013393426243E+097   3.2189697920787040E+100   1.8503956912072106E+201
 -0.10070000000000000        1.2610000000000000E-002  0.49640494616561265       -8.4624949025423867E+097   3.3511819420078360E+100   1.8691408392780555E+201
  -6.7460000000000006E-002   1.2860000000000000E-002  0.55041125415583547       -1.5892665728518463E+098   3.5715542923430503E+100   1.8773094861886327E+201
  -3.4209999999999997E-002   1.3299999999999999E-002  0.69989472464253233       -4.3070791486227636E+098   3.9628352868085841E+100   1.6813911370957327E+201
  -9.5859999999999999E-004   1.4400000000000000E-002  0.77160955380945484       -3.8668339982742833E+099   5.0456721772268894E+100   2.9201845096018490E+201
   2.4119999999999999E-002   1.7809999999999999E-002  0.62699666074561033       -6.9381261234925373E+099   4.2603119084909398E+100   2.5938294076572746E+201
   4.9189999999999998E-002   2.1720000000000000E-002  0.52182300041425445       -6.1454232818117859E+099   3.6312069789095502E+100   2.2508205684340069E+201
   7.4249999999999997E-002   2.5800000000000000E-002  0.46909947756052278       -5.7066367865358240E+099   3.3251874918455643E+100   2.0932293592078771E+201
   9.9309999999999996E-002   2.9960000000000001E-002  0.43037101801372313       -5.3558723723796977E+099   3.1009022401576229E+100   1.9839576387890722E+201
  0.12440000000000000        3.4160000000000003E-002  0.40029700574233956       -5.0638889840979492E+099   2.9186293644676629E+100   1.8861012115089347E+201
  0.14940000000000001        3.8390000000000001E-002  0.37187544260420169       -4.7900931633904558E+099   2.7545932193809822E+100   1.8118099293111769E+201
  0.17449999999999999        4.2630000000000001E-002  0.34911822217692218       -4.5411649271093455E+099   2.6065125134897627E+100   1.7231372063383370E+201
  0.19950000000000001        4.6890000000000001E-002  0.32499304688621761       -4.3002850355534939E+099   2.4662115441915134E+100   1.6633980660398808E+201
  0.22459999999999999        5.1139999999999998E-002  0.30541445954456869       -4.0738290668316193E+099   2.3355680812264025E+100   1.5850514387600687E+201
  0.24959999999999999        5.5399999999999998E-002  0.28305831613571109       -3.8365304969901475E+099   2.1976230732113868E+100   1.5178978668066661E+201
  0.27470000000000000        5.9659999999999998E-002  0.26486806860703555       -3.6199714502992666E+099   2.0738450758977625E+100   1.4444288926059732E+201
  0.29970000000000002        6.3909999999999995E-002  0.24271653875348131       -3.3717768184066043E+099   1.9328586830976313E+100   1.3742877932445941E+201
  0.32479999999999998        6.8150000000000002E-002  0.22368428612085270       -3.1364817351243840E+099   1.7989618689163471E+100   1.2919363555762230E+201
  0.34980000000000000        7.2380000000000000E-002  0.20083085416809743       -2.8693432460727754E+099   1.6482434297978026E+100   1.2154570735047876E+201
  0.37490000000000001        7.6579999999999995E-002  0.17930565072653085       -2.5932366123935025E+099   1.4932486729957576E+100   1.1205189826965620E+201
  0.39989999999999998        8.0750000000000002E-002  0.15317861833192703       -2.2689275477168656E+099   1.3114564860091108E+100   1.0226240306964377E+201
  0.42499999999999999        8.4860000000000005E-002  0.12656783793636006       -1.9117693352755381E+099   1.1120598985327076E+100   8.9907504126521893E+200
  0.45000000000000001        8.8880000000000001E-002   9.3908547586231614E-002  -1.4793569364883245E+099   8.7242228688662703E+099   7.7528090175977638E+200
  0.47510000000000002        9.2649999999999996E-002   5.9039941977349596E-002  -9.7613996524378287E+098   6.0616741022191391E+099   6.8351406757076420E+200
  0.50009999999999999        9.5600000000000004E-002   2.2040476868253289E-002   1.6410104684857314E+096   2.0201234524186855E+099   1.3674558705623733E+200
  0.52520000000000000        9.2619999999999994E-002   5.6289001880760137E-002   7.6907705286559599E+098   4.8457077012753278E+099   3.4502243671049307E+200
  0.55020000000000002        8.8830000000000006E-002   9.9121065295546096E-002   1.3771784648488414E+099   8.1937457208196171E+099   5.7011424371705931E+200
  0.57530000000000003        8.4820000000000007E-002  0.13273025771263677        1.8283257956693776E+099   1.0703371503662727E+100   7.3143839853418666E+200
  0.60040000000000004        8.0710000000000004E-002  0.15879299474329919        2.1797107875049448E+099   1.2644186914184749E+100   8.6016595579318168E+200
  0.62539999999999996        7.6539999999999997E-002  0.18390362440153610        2.4918973003872696E+099   1.4383297398123454E+100   9.6328381859453824E+200
  0.65049999999999997        7.2330000000000005E-002  0.20469347580718081        2.7562563335199293E+099   1.5863765528395754E+100   1.0575035148257690E+201
  0.67549999999999999        6.8099999999999994E-002  0.22684679968203889        3.0094057774279995E+099   1.7298425154426819E+100   1.1333379753873729E+201
  0.70060000000000000        6.3860000000000000E-002  0.24536634827507126        3.2305620755948634E+099   1.8555748606394867E+100   1.2080644146997040E+201
  0.72560000000000002        5.9610000000000003E-002  0.26627736144680769        3.4587139895601349E+099   1.9850994661690756E+100   1.2727291524211544E+201
  0.75070000000000003        5.5350000000000003E-002  0.28453224898352719        3.6726861540332175E+099   2.1074638789442175E+100   1.3456128752216446E+201
  0.77569999999999995        5.1090000000000003E-002  0.30771488632133098        3.9075584652352060E+099   2.2441445073186936E+100   1.4065901213814215E+201
  0.80079999999999996        4.6840000000000000E-002  0.32550498292229524        4.1024005646532599E+099   2.3566773220492110E+100   1.4692718325900214E+201
  0.82579999999999998        4.2580000000000000E-002  0.34889370900142697        4.3228439056339655E+099   2.4851571106386219E+100   1.5180870891244156E+201
  0.85089999999999999        3.8339999999999999E-002  0.37262145257449225        4.5351852470831234E+099   2.6144601459041617E+100   1.5668487214370090E+201
  0.87600000000000000        3.4110000000000001E-002  0.39754530098281765        4.7770658876886846E+099   2.7579417679315493E+100   1.6331099840559983E+201
  0.90100000000000002        2.9909999999999999E-002  0.43170573336260065        5.0676303457648043E+099   2.9357705237873115E+100   1.6972909111184363E+201
  0.92610000000000003        2.5739999999999999E-002  0.47361573614449831        5.3872660710328012E+099   3.1436005890795111E+100   1.7595885744817335E+201
  0.95109999999999995        2.1669999999999998E-002  0.53809682813597770        5.7618142719208400E+099   3.4110303526272221E+100   1.7871422640427366E+201
  0.97619999999999996        1.7760000000000001E-002  0.69648744794803608        6.4170248487141028E+099   3.9570549288137598E+100   1.7451827154260906E+201
   1.0009999999999999        1.4370000000000001E-002  0.75177706218496687        3.8217630369660556E+099   5.0031461807035498E+100   2.9830903264826547E+201
   1.0340000000000000        1.3290000000000000E-002  0.56724065467237583        3.9121360496391581E+098   3.9490428608117351E+100   2.3916461050865192E+201
   1.0680000000000001        1.2860000000000000E-002  0.50408415048577426        1.4785688680298308E+098   3.5327841489914247E+100   2.1309090269201292E+201
   1.1010000000000000        1.2610000000000000E-002  0.47361799366224788        8.0589250565731373E+097   3.3606682727182455E+100   2.0422251156427586E+201
   1.1339999999999999        1.2449999999999999E-002  0.43201925738524161        4.7608985609071854E+097   3.1407194612079551E+100   1.9652899533822570E+201
   1.1670000000000000        1.2330000000000001E-002  0.43254875776410956        3.5740750654644866E+097   3.0920010401037035E+100   1.8835775054042357E+201
   1.2010000000000001        1.2239999999999999E-002  0.45192349730128911        2.5724701675488737E+097   3.1752497027660345E+100   1.8843025268486790E+201
   1.2340000000000000        1.2170000000000000E-002  0.39595585630947472        1.4792075010733517E+097   2.9380355017653706E+100   1.8691262317264889E+201
   1.2669999999999999        1.2109999999999999E-002  0.39002828541110723        1.3492980315469946E+097   2.8803382352860259E+100   1.8209742859830292E+201
   1.3000000000000000        1.2060000000000000E-002  0.40321019908773170        1.3331476877513597E+097   2.8990242875387792E+100   1.7585216168697631E+201
   1.3340000000000001        1.2010000000000000E-002  0.38898008003092222        1.1574963625904119E+097   2.8226850255443003E+100   1.7403688322367494E+201
   1.3670000000000000        1.1970000000000000E-002  0.37389344398931579        1.3204463451767411E+097   2.7764851596382380E+100   1.7659182338260057E+201
   1.3999999999999999        1.1930000000000000E-002  0.39409321435366013        1.2548544214262342E+097   2.8866878973833994E+100   1.7963811384782278E+201
   1.4330000000000001        1.1900000000000001E-002  0.37350224149875205        7.9666679258953768E+096   2.7572161811096597E+100   1.7283160122927842E+201
   1.4670000000000001        1.1870000000000000E-002  0.36419787725025654        1.1298526020818037E+097   2.6877204757584405E+100   1.6865384387870819E+201
   1.5000000000000000        1.1830000000000000E-002  0.36482476022350852        9.5653421651129878E+096   2.2754475383352632E+100   1.2067430088345228E+201
 -0.50000000000000000        2.3910000000000001E-002   4.0000000000000000        4.0000000000000000        0.0000000000000000        3.7857142857142865     
 -0.46679999999999999        2.3970000000000002E-002   8.4696131229781493       -4.5856397249679424E+095   3.5487283635779571E+098   9.6261589510635158E+198
 -0.43359999999999999        2.4039999999999999E-002   8.6934461494529014       -2.3937578060607386E+095   4.0491294625153810E+098   1.0985690024324708E+199
 -0.40029999999999999        2.4109999999999999E-002   8.6839044128107954       -2.3366626313166917E+095   4.0752117250257068E+098   1.0979074318001021E+199
 -0.36709999999999998        2.4180000000000000E-002   8.6839638698953276       -2.5862880806041266E+095   4.0839513467698080E+098   1.0961587649079656E+199
 -0.33389999999999997        2.4260000000000000E-002   8.6721330271926664       -2.8613645494464538E+095   4.0937143722935648E+098   1.0916108150093368E+199
 -0.30070000000000002        2.4350000000000000E-002   8.6620551698286636       -3.2194963624192251E+095   4.1212898367101041E+098   1.0947979843107581E+199
 -0.26750000000000002        2.4459999999999999E-002   8.6522514716026073       -3.5421416579862275E+095   4.1455721378089950E+098   1.0970316545256408E+199
 -0.23430000000000001        2.4580000000000001E-002   8.6420942876590399       -4.1614217505873287E+095   4.1652582957563145E+098   1.0924141807377114E+199
 -0.20110000000000000        2.4719999999999999E-002   8.6174695800376746       -5.3268865305987896E+095   4.1949662672725649E+098   1.0912462951554850E+199
 -0.16780000000000000        2.4910000000000002E-002   8.5964364587634687       -7.1870914109344127E+095   4.2283766832423437E+098   1.0872535403942031E+199
 -0.13460000000000000        2.5139999999999999E-002   8.5739791046267761       -9.7318298818812918E+095   4.2425254508024548E+098   1.0710447659435286E+199
 -0.10150000000000001        2.5460000000000000E-002   8.5189477621237923       -1.4534605154040643E+096   4.2507136269050508E+098   1.0434021588926727E+199
  -6.8269999999999997E-002   2.5930000000000002E-002   8.4264034025144028       -2.4430038207848528E+096   4.2387789291363952E+098   9.8477872943187426E+198
  -3.5090000000000003E-002   2.6730000000000000E-002   8.1230448376328042       -5.1554816902399536E+096   3.8877010068094894E+098   7.4026386325284113E+198
  -1.9330000000000000E-003   2.8379999999999999E-002   8.7022770454516074       -4.5448881305893152E+097   5.9045483726081426E+098   1.4827610205116865E+199
   2.3230000000000001E-002   3.1280000000000002E-002   8.8437329455021096       -8.5340494704290611E+097   5.3844750969405687E+098   1.4236707676451583E+199
   4.8379999999999999E-002   3.4790000000000001E-002   8.8048101176125062       -8.0401706239107427E+097   4.8289138789749264E+098   1.3022773882099835E+199
   7.3499999999999996E-002   3.8570000000000000E-002   8.8432652283225419       -7.8138985381373277E+097   4.6068837307289779E+098   1.2628336179458492E+199
   9.8610000000000003E-002   4.2490000000000000E-002   8.8896513735775464       -7.6255730392150312E+097   4.4575772776201475E+098   1.2419902212186089E+199
  0.12370000000000000        4.6489999999999997E-002   8.9155988437771487       -7.4173353144594086E+097   4.3106140807894998E+098   1.2135455102188748E+199
  0.14879999999999999        5.0540000000000002E-002   8.9601144241905217       -7.2518069226990915E+097   4.2024743477006936E+098   1.2035507880050088E+199
  0.17390000000000000        5.4609999999999999E-002   8.9797139852530634       -7.0257488550861661E+097   4.0617874477729569E+098   1.1698962831866073E+199
  0.19900000000000001        5.8709999999999998E-002   9.0280287614380104       -6.8752324306413630E+097   3.9708939055996483E+098   1.1657003968983281E+199
  0.22409999999999999        6.2810000000000005E-002   9.0438280090247858       -6.6440477530131544E+097   3.8363309728351550E+098   1.1334874378050919E+199
  0.24920000000000000        6.6909999999999997E-002   9.0859416659633396       -6.4544716623187319E+097   3.7235670339248560E+098   1.1189139514914734E+199
  0.27429999999999999        7.1020000000000000E-002   9.1095129427087844       -6.2270482301730943E+097   3.5937715134115105E+098   1.0888753653883242E+199
  0.29940000000000000        7.5100000000000000E-002   9.1553793454070327       -6.0011920784701572E+097   3.4674378289756532E+098   1.0713671923671519E+199
  0.32450000000000001        7.9170000000000004E-002   9.1791259731986869       -5.7255671272904745E+097   3.3115832121768241E+098   1.0333050624839071E+199
  0.34960000000000002        8.3210000000000006E-002   9.2363444105468950       -5.4583914037457388E+097   3.1650415108578892E+098   1.0123264283943177E+199
  0.37469999999999998        8.7200000000000000E-002   9.2669281063636362       -5.1041108628406880E+097   2.9709462152007654E+098   9.6603938311378317E+198
  0.39979999999999999        9.1120000000000007E-002   9.3336827488145389       -4.7170946908596744E+097   2.7623836989119391E+098   9.3054765698967162E+198
  0.42490000000000000        9.4930000000000000E-002   9.3852048538754875       -4.2043000552937521E+097   2.4873497972661635E+098   8.6605731870822461E+198
  0.45000000000000001        9.8530000000000006E-002   9.5177812525820098       -3.6082258181313737E+097   2.1844228573040567E+098   8.2650959292870507E+198
  0.47520000000000001       0.10170000000000000        9.8192909813193179       -2.8392466985292867E+097   1.8834490769238694E+098   8.6390272184501067E+198
  0.50029999999999997       0.10370000000000000        8.3709181019315348        1.3234931449102813E+095   5.1569454513153533E+097   1.5607906607950320E+198
  0.52539999999999998       0.10170000000000000        8.4820937382762640        1.7155924635012428E+097   1.1224985077958284E+098   3.5198846252605691E+198
  0.55049999999999999        9.8460000000000006E-002   8.6904915706334140        2.8536551496972849E+097   1.7321027546980754E+098   5.2975695494657959E+198
  0.57560000000000000        9.4850000000000004E-002   8.7284507497154848        3.5810231732307327E+097   2.1262950045821481E+098   6.3835060273793709E+198
  0.60070000000000001        9.1039999999999996E-002   8.7339349471685672        4.1064247051198414E+097   2.4086526587962818E+098   7.1882791765864392E+198
  0.62580000000000002        8.7110000000000007E-002   8.7281707003474374        4.5171665050660004E+097   2.6316896533789736E+098   7.7305971805636605E+198
  0.65090000000000003        8.3119999999999999E-002   8.7223472527281416        4.8624210891902608E+097   2.8217167318236113E+098   8.2439560664380268E+198
  0.67600000000000005        7.9079999999999998E-002   8.6966780938745440        5.1308008577777522E+097   2.9712717830345778E+098   8.5356200618338645E+198
  0.70109999999999995        7.5009999999999993E-002   8.6826584596197502        5.3791718413293602E+097   3.1113057029712961E+098   8.8789295236818928E+198
  0.72619999999999996        7.0919999999999997E-002   8.6545679171600067        5.5884412939408742E+097   3.2286945957418529E+098   9.0771437007134793E+198
  0.75129999999999997        6.6820000000000004E-002   8.6382678090298857        5.8086577993344333E+097   3.3548712946247364E+098   9.3879787622916479E+198
  0.77649999999999997        6.2710000000000002E-002   8.6037576009872172        5.9881209865261616E+097   3.4612089307621958E+098   9.5153485573174322E+198
  0.80159999999999998        5.8610000000000002E-002   8.5938392000370882        6.1742931770534184E+097   3.5694328820180313E+098   9.7584146201076319E+198