VARIABLES = "X" "Y" "Ust1" "Ust2" "Ust3" "Ust4"
ZONE I=  71    J=   48
 -0.50000000000000000        0.0000000000000000        0.0000000000000000        0.0000000000000000        0.0000000000000000        0.0000000000000000     
 -0.46670000000000000        0.0000000000000000        0.0000000000000000        0.0000000000000000        0.0000000000000000        0.0000000000000000     
 -0.43330000000000002        0.0000000000000000        0.0000000000000000        0.0000000000000000        0.0000000000000000        0.0000000000000000     
 -0.40000000000000002        0.0000000000000000        0.0000000000000000        0.0000000000000000        0.0000000000000000        0.0000000000000000     
 -0.36670000000000003        0.0000000000000000        0.0000000000000000        0.0000000000000000        0.0000000000000000        0.0000000000000000     
 -0.33329999999999999        0.0000000000000000        0.0000000000000000        0.0000000000000000        0.0000000000000000        0.0000000000000000     
 -0.29999999999999999        0.0000000000000000        0.0000000000000000        0.0000000000000000        0.0000000000000000        0.0000000000000000     
 -0.26669999999999999        0.0000000000000000        0.0000000000000000        0.0000000000000000        0.0000000000000000        0.0000000000000000     
 -0.23330000000000001        0.0000000000000000        0.0000000000000000        0.0000000000000000        0.0000000000000000        0.0000000000000000     
 -0.20000000000000001        0.0000000000000000        0.0000000000000000        0.0000000000000000        0.0000000000000000        0.0000000000000000     
 -0.16669999999999999        0.0000000000000000        0.0000000000000000        0.0000000000000000        0.0000000000000000        0.0000000000000000     
 -0.13330000000000000        0.0000000000000000        0.0000000000000000        0.0000000000000000        0.0000000000000000        0.0000000000000000     
 -0.10000000000000001        0.0000000000000000        0.0000000000000000        0.0000000000000000        0.0000000000000000        0.0000000000000000     
  -6.6669999999999993E-002   0.0000000000000000        0.0000000000000000        0.0000000000000000        0.0000000000000000        0.0000000000000000     
  -3.3329999999999999E-002   0.0000000000000000        0.0000000000000000        0.0000000000000000        0.0000000000000000        0.0000000000000000     
   0.0000000000000000        0.0000000000000000        0.0000000000000000        0.0000000000000000        0.0000000000000000        0.0000000000000000     
   2.5000000000000001E-002   4.4099999999999999E-003   0.0000000000000000        0.0000000000000000        0.0000000000000000        0.0000000000000000     
   5.0000000000000003E-002   8.8199999999999997E-003   0.0000000000000000        0.0000000000000000        0.0000000000000000        0.0000000000000000     
   7.4999999999999997E-002   1.3230000000000000E-002   0.0000000000000000        0.0000000000000000        0.0000000000000000        0.0000000000000000     
  0.10000000000000001        1.7639999999999999E-002   0.0000000000000000        0.0000000000000000        0.0000000000000000        0.0000000000000000     
  0.12500000000000000        2.2050000000000000E-002   0.0000000000000000        0.0000000000000000        0.0000000000000000        0.0000000000000000     
  0.14999999999999999        2.6460000000000001E-002   0.0000000000000000        0.0000000000000000        0.0000000000000000        0.0000000000000000     
  0.17499999999999999        3.0870000000000002E-002   0.0000000000000000        0.0000000000000000        0.0000000000000000        0.0000000000000000     
  0.20000000000000001        3.5279999999999999E-002   0.0000000000000000        0.0000000000000000        0.0000000000000000        0.0000000000000000     
  0.22500000000000001        3.9690000000000003E-002   0.0000000000000000        0.0000000000000000        0.0000000000000000        0.0000000000000000     
  0.25000000000000000        4.4100000000000000E-002   0.0000000000000000        0.0000000000000000        0.0000000000000000        0.0000000000000000     
  0.27500000000000002        4.8509999999999998E-002   0.0000000000000000        0.0000000000000000        0.0000000000000000        0.0000000000000000     
  0.29999999999999999        5.2920000000000002E-002   0.0000000000000000        0.0000000000000000        0.0000000000000000        0.0000000000000000     
  0.32500000000000001        5.7329999999999999E-002   0.0000000000000000        0.0000000000000000        0.0000000000000000        0.0000000000000000     
  0.34999999999999998        6.1740000000000003E-002   0.0000000000000000        0.0000000000000000        0.0000000000000000        0.0000000000000000     
  0.37500000000000000        6.6150000000000000E-002   0.0000000000000000        0.0000000000000000        0.0000000000000000        0.0000000000000000     
  0.40000000000000002        7.0559999999999998E-002   0.0000000000000000        0.0000000000000000        0.0000000000000000        0.0000000000000000     
  0.42499999999999999        7.4969999999999995E-002   0.0000000000000000        0.0000000000000000        0.0000000000000000        0.0000000000000000     
  0.45000000000000001        7.9380000000000006E-002   0.0000000000000000        0.0000000000000000        0.0000000000000000        0.0000000000000000     
  0.47499999999999998        8.3790000000000003E-002   0.0000000000000000        0.0000000000000000        0.0000000000000000        0.0000000000000000     
  0.50000000000000000        8.8200000000000001E-002   0.0000000000000000        0.0000000000000000        0.0000000000000000        0.0000000000000000     
  0.52500000000000002        8.3790000000000003E-002   0.0000000000000000        0.0000000000000000        0.0000000000000000        0.0000000000000000     
  0.55000000000000004        7.9380000000000006E-002   0.0000000000000000        0.0000000000000000        0.0000000000000000        0.0000000000000000     
  0.57499999999999996        7.4969999999999995E-002   0.0000000000000000        0.0000000000000000        0.0000000000000000        0.0000000000000000     
  0.59999999999999998        7.0559999999999998E-002   0.0000000000000000        0.0000000000000000        0.0000000000000000        0.0000000000000000     
  0.62500000000000000        6.6150000000000000E-002   0.0000000000000000        0.0000000000000000        0.0000000000000000        0.0000000000000000     
  0.65000000000000002        6.1740000000000003E-002   0.0000000000000000        0.0000000000000000        0.0000000000000000        0.0000000000000000     
  0.67500000000000004        5.7329999999999999E-002   0.0000000000000000        0.0000000000000000        0.0000000000000000        0.0000000000000000     
  0.69999999999999996        5.2920000000000002E-002   0.0000000000000000        0.0000000000000000        0.0000000000000000        0.0000000000000000     
  0.72499999999999998        4.8509999999999998E-002   0.0000000000000000        0.0000000000000000        0.0000000000000000        0.0000000000000000     
  0.75000000000000000        4.4100000000000000E-002   0.0000000000000000        0.0000000000000000        0.0000000000000000        0.0000000000000000     
  0.77500000000000002        3.9690000000000003E-002   0.0000000000000000        0.0000000000000000        0.0000000000000000        0.0000000000000000     
  0.80000000000000004        3.5279999999999999E-002   0.0000000000000000        0.0000000000000000        0.0000000000000000        0.0000000000000000     
  0.82499999999999996        3.0870000000000002E-002   0.0000000000000000        0.0000000000000000        0.0000000000000000        0.0000000000000000     
  0.84999999999999998        2.6460000000000001E-002   0.0000000000000000        0.0000000000000000        0.0000000000000000        0.0000000000000000     
  0.87500000000000000        2.2050000000000000E-002   0.0000000000000000        0.0000000000000000        0.0000000000000000        0.0000000000000000     
  0.90000000000000002        1.7639999999999999E-002   0.0000000000000000        0.0000000000000000        0.0000000000000000        0.0000000000000000     
  0.92500000000000004        1.3230000000000000E-002   0.0000000000000000        0.0000000000000000        0.0000000000000000        0.0000000000000000     
  0.94999999999999996        8.8199999999999997E-003   0.0000000000000000        0.0000000000000000        0.0000000000000000        0.0000000000000000     
  0.97499999999999998        4.4099999999999999E-003   0.0000000000000000        0.0000000000000000        0.0000000000000000        0.0000000000000000     
   1.0000000000000000        0.0000000000000000        0.0000000000000000        0.0000000000000000        0.0000000000000000        0.0000000000000000     
   1.0329999999999999        0.0000000000000000        0.0000000000000000        0.0000000000000000        0.0000000000000000        0.0000000000000000     
   1.0669999999999999        0.0000000000000000        0.0000000000000000        0.0000000000000000        0.0000000000000000        0.0000000000000000     
   1.1000000000000001        0.0000000000000000        0.0000000000000000        0.0000000000000000        0.0000000000000000        0.0000000000000000     
   1.1330000000000000        0.0000000000000000        0.0000000000000000        0.0000000000000000        0.0000000000000000        0.0000000000000000     
   1.1670000000000000        0.0000000000000000        0.0000000000000000        0.0000000000000000        0.0000000000000000        0.0000000000000000     
   1.2000000000000000        0.0000000000000000        0.0000000000000000        0.0000000000000000        0.0000000000000000        0.0000000000000000     
   1.2330000000000001        0.0000000000000000        0.0000000000000000        0.0000000000000000        0.0000000000000000        0.0000000000000000     
   1.2669999999999999        0.0000000000000000        0.0000000000000000        0.0000000000000000        0.0000000000000000        0.0000000000000000     
   1.3000000000000000        0.0000000000000000        0.0000000000000000        0.0000000000000000        0.0000000000000000        0.0000000000000000     
   1.3330000000000000        0.0000000000000000        0.0000000000000000        0.0000000000000000        0.0000000000000000        0.0000000000000000     
   1.3670000000000000        0.0000000000000000        0.0000000000000000        0.0000000000000000        0.0000000000000000        0.0000000000000000     
   1.3999999999999999        0.0000000000000000        0.0000000000000000        0.0000000000000000        0.0000000000000000        0.0000000000000000     
   1.4330000000000001        0.0000000000000000        0.0000000000000000        0.0000000000000000        0.0000000000000000        0.0000000000000000     
   1.4670000000000001        0.0000000000000000        0.0000000000000000        0.0000000000000000        0.0000000000000000        0.0000000000000000     
   1.5000000000000000        0.0000000000000000        0.0000000000000000        0.0000000000000000        0.0000000000000000        0.0000000000000000     
 -0.50000000000000000        1.1830000000000000E-002   0.0000000000000000        0.0000000000000000        0.0000000000000000        0.0000000000000000     
 -0.46670000000000000        1.1870000000000000E-002                       NaN                       NaN                       NaN                       NaN
 -0.43340000000000001        1.1900000000000001E-002   5.2763539812395139        5.6522647155503085      -0.38471824800172572        5.2308534412321261     
 -0.40020000000000000        1.1930000000000000E-002   5.2770452932794782        5.6536527562692633      -0.38055778210323832        5.2315861395361463     
 -0.36690000000000000        1.1970000000000000E-002   5.2844269144012461        5.6632487846409125      -0.38075697889932814        5.2400182976938385     
 -0.33360000000000001        1.2010000000000000E-002   5.2820497104619797        5.6610945420561967      -0.37889036802903231        5.2374087791265946     
 -0.30030000000000001        1.2060000000000000E-002   5.2767649036078428        5.6556191743135376      -0.37396208682869858        5.2313923708634267     
 -0.26710000000000000        1.2109999999999999E-002   5.2799804388176863        5.6602039753835038      -0.37065263398398129        5.2350076902696792     
 -0.23380000000000001        1.2170000000000000E-002   5.2845152327767124        5.6669402567553062      -0.36814262424328942        5.2402155471485479     
 -0.20050000000000001        1.2239999999999999E-002   5.2741879861087835        5.6559459539962837      -0.36054432295267680        5.2285531594953802     
 -0.16730000000000000        1.2330000000000001E-002   5.2780064819052956        5.6612604518394392      -0.35526880915431025        5.2327711525234530     
 -0.13400000000000001        1.2449999999999999E-002   5.2890524570620112        5.6763405514906067      -0.35244919683658904        5.2453943119555335     
 -0.10070000000000000        1.2610000000000000E-002   5.2867089294934919        5.6761926481087448      -0.34234682196231137        5.2428406851759508     
  -6.7460000000000006E-002   1.2860000000000000E-002   5.2897496192000029        5.6829540626911719      -0.32831428849395372        5.2462094171992479     
  -3.4209999999999997E-002   1.3299999999999999E-002   5.3132600737446696        5.7166254399944219      -0.31222282677019536        5.2728814240457078     
  -9.5859999999999999E-004   1.4400000000000000E-002   5.2594266609894866        5.6392049956039454      -0.31783221070087353        5.2118996932020449     
   2.4119999999999999E-002   1.7809999999999999E-002   5.2478306417822136        5.5960675061487146      -0.35182213183669875        5.1980104696644238     
   4.9189999999999998E-002   2.1720000000000000E-002   5.6201669784170045        6.0379237519635787      -0.37680770162562172        5.6199947430050994     
   7.4249999999999997E-002   2.5800000000000000E-002   5.6672823999928363        6.0987789660332128      -0.38675763239164779        5.6785691974173629     
   9.9309999999999996E-002   2.9960000000000001E-002   5.6807539081085947        6.1128692914439720      -0.40013846983555879        5.6939856963003246     
  0.12440000000000000        3.4160000000000003E-002   5.6829051297228759        6.1130380020404171      -0.41183494332601722        5.6966044544037446     
  0.14940000000000001        3.8390000000000001E-002   5.6914547233173298        6.1207972321403528      -0.42379903686096515        5.7063349554524585     
  0.17449999999999999        4.2630000000000001E-002   5.6940261802702956        6.1220072592522312      -0.43409993531581653        5.7093961745902115     
  0.19950000000000001        4.6890000000000001E-002   5.7011998923011298        6.1293659075326801      -0.44462745061879805        5.7175828783484528     
  0.22459999999999999        5.1139999999999998E-002   5.7027176303191229        6.1290289178072204      -0.45448930580238178        5.7193593018966080     
  0.24959999999999999        5.5399999999999998E-002   5.7063466313209705        6.1313417005309354      -0.46569079311948175        5.7234953628745053     
  0.27470000000000000        5.9659999999999998E-002   5.7103202153851438        6.1343789960683424      -0.47646506513857856        5.7280736194654231     
  0.29970000000000002        6.3909999999999995E-002   5.7130293925170026        6.1355929041603323      -0.48867008744378049        5.7311785281903376     
  0.32479999999999998        6.8150000000000002E-002   5.7147566510960930        6.1354072888213427      -0.50100372603267629        5.7331756527921449     
  0.34980000000000000        7.2380000000000000E-002   5.7199241149145656        6.1386274373487026      -0.51710553681584637        5.7390738219589368     
  0.37490000000000001        7.6579999999999995E-002   5.7193358068907640        6.1351647368279387      -0.53254238293864065        5.7384837417501320     
  0.39989999999999998        8.0750000000000002E-002   5.7206169215748721        6.1336287435674066      -0.55202015833498552        5.7399169822454370     
  0.42499999999999999        8.4860000000000005E-002   5.7181520330073852        6.1265081074096193      -0.57613296267870995        5.7371255930397052     
  0.45000000000000001        8.8880000000000001E-002   5.7071799201092999        6.1076280455212908      -0.60926068144534529        5.7246128936820844     
  0.47510000000000002        9.2649999999999996E-002   5.6616453404823641        6.0460337470067262      -0.64872681343205818        5.6726645555294537     
  0.50009999999999999        9.5600000000000004E-002   5.4858510891641563        5.8292200155393177      -0.69354453753801126        5.4721887459167942     
  0.52520000000000000        9.2619999999999994E-002   5.9841237768116322        6.4266936727571844      -0.69026617961990189        6.0357786142752854     
  0.55020000000000002        8.8830000000000006E-002   5.8989171024575322        6.3393994986460660      -0.62847106654652274        5.9469601482062506     
  0.57530000000000003        8.4820000000000007E-002   5.8465775082176794        6.2811548211298200      -0.59017893060809201        5.8851610360399800     
  0.60040000000000004        8.0710000000000004E-002   5.8043646013512369        6.2340382077602872      -0.56077619393056000        5.8364923923910981     
  0.62539999999999996        7.6539999999999997E-002   5.7906235631287544        6.2204600502087146      -0.54081058553533290        5.8202903413498408     
  0.65049999999999997        7.2330000000000005E-002   5.7798498087857748        6.2106269705528598      -0.52318226412018110        5.8078586765165454     
  0.67549999999999999        6.8099999999999994E-002   5.7694161742746539        6.2003818009756477      -0.50819323218668033        5.7957871042990607     
  0.70060000000000000        6.3860000000000000E-002   5.7613512407168530        6.1928870238860707      -0.49486444516018513        5.7864517070036916     
  0.72560000000000002        5.9610000000000003E-002   5.7545523689785654        6.1867756738164701      -0.48236179240762456        5.7785655882143336     
  0.75070000000000003        5.5350000000000003E-002   5.7468021504817033        6.1793623793682766      -0.47058933683130644        5.7696002527952643     
  0.77569999999999995        5.1090000000000003E-002   5.7418330987672412        6.1754409993279031      -0.45814301818857106        5.7637878133288236     
  0.80079999999999996        4.6840000000000000E-002   5.7430873842951877        6.1784040605219133      -0.45094132737872539        5.7651413171757593     
  0.82579999999999998        4.2580000000000000E-002   5.7405984507378554        6.1772606024755703      -0.44081238896331476        5.7622780181934621     
  0.85089999999999999        3.8339999999999999E-002   5.7460667901261520        6.1857199736375952      -0.43201610132403956        5.7684167095931995     
  0.87600000000000000        3.4110000000000001E-002   5.7337688113008136        6.1730009765121405      -0.41980378738489749        5.7544518564088580     
  0.90100000000000002        2.9909999999999999E-002   5.7323802995880797        6.1735091941404328      -0.40674073884616635        5.7526227284198903     
  0.92610000000000003        2.5739999999999999E-002   5.7376388727596712        6.1849121590701124      -0.39043874166292269        5.7585092636798816     
  0.95109999999999995        2.1669999999999998E-002   5.7506620268516500        6.2105814758495592      -0.36988736382128407        5.7731518832143136     
  0.97619999999999996        1.7760000000000001E-002   5.7362693761379981        6.1984009397694795      -0.34647049507909078        5.7565193135858497     
   1.0009999999999999        1.4370000000000001E-002   6.0331343352418125        6.5802644986568763      -0.32769327773702184        6.0939386261691091     
   1.0340000000000000        1.3290000000000000E-002   5.6422076891601378        6.1359513058275148      -0.31028116199693090        5.6533137760035483     
   1.0680000000000001        1.2860000000000000E-002   5.2787250711294353        5.6922348806772938      -0.31630647088605984        5.2348466791498947     
   1.1010000000000000        1.2610000000000000E-002   5.2252479700883621        5.6196231488866353      -0.31507394559365431        5.1710211714379399     
   1.1339999999999999        1.2449999999999999E-002   5.2624447642647549        5.6612046493280772      -0.32616716651666472        5.2130995360979542     
   1.1670000000000000        1.2330000000000001E-002   5.3138375199831751        5.7238226348133159      -0.34761297600547791        5.2718706021515445     
   1.2010000000000001        1.2239999999999999E-002   5.2632806918115165        5.6623996503009115      -0.33742279030996414        5.2150336445974670     
   1.2340000000000000        1.2170000000000000E-002   5.2143633905239071        5.5990234723091215      -0.32733621490360665        5.1590503856086789     
   1.2669999999999999        1.2109999999999999E-002   5.2709932887127504        5.6646368594132275      -0.35528856370944234        5.2229978441681384     
   1.3000000000000000        1.2060000000000000E-002   5.3234447892125853        5.7304976566292805      -0.36013655210535223        5.2832843368768874     
   1.3340000000000001        1.2010000000000000E-002   5.2942276115821691        5.6953824705015696      -0.36126763492968750        5.2506483541799689     
   1.3670000000000000        1.1970000000000000E-002   5.2449037739855644        5.6330541015058753      -0.36089993437555257        5.1943887384782785     
   1.3999999999999999        1.1930000000000000E-002   5.2509238000003080        5.6383176636560757      -0.35100276437775668        5.2007805701647536     
   1.4330000000000001        1.1900000000000001E-002   5.2950179326070081        5.6932118957321878      -0.35361189577863694        5.2511036034994758     
   1.4670000000000001        1.1870000000000000E-002   5.2960761035887032        5.6947215605032042      -0.37765777135328715        5.2528518046294526     
   1.5000000000000000        1.1830000000000000E-002   0.0000000000000000        0.0000000000000000        0.0000000000000000        0.0000000000000000     
 -0.50000000000000000        2.3910000000000001E-002   0.0000000000000000        0.0000000000000000        0.0000000000000000        0.0000000000000000     
 -0.46679999999999999        2.3970000000000002E-002                       NaN                       NaN                       NaN                       NaN
 -0.43359999999999999        2.4039999999999999E-002   6.4532068384874970        6.9165579716304206      -0.61901349814765894        6.5820873888183886     
 -0.40029999999999999        2.4109999999999999E-002   6.4488732836375844        6.9115142652514781      -0.61457316953659236        6.5772256860179930     
 -0.36709999999999998        2.4180000000000000E-002   6.4402912645024966        6.9014502781381069      -0.61182162878794932        6.5674594030788747     
 -0.33389999999999997        2.4260000000000000E-002   6.4428737100624867        6.9045832153530124      -0.60916535064740418        6.5702983812555598     
 -0.30070000000000002        2.4350000000000000E-002   6.4451964914910747        6.9075538814342794      -0.60488154843537978        6.5728930836625210     
 -0.26750000000000002        2.4459999999999999E-002   6.4468288797411040        6.9096507217471590      -0.60195790232480495        6.5748295510184827     
 -0.23430000000000001        2.4580000000000001E-002   6.4435688710163888        6.9060111119970671      -0.59734404098832161        6.5711761195937779     
 -0.20110000000000000        2.4719999999999999E-002   6.4563048546948583        6.9213927646997071      -0.59576834316522576        6.5855725358095611     
 -0.16780000000000000        2.4910000000000002E-002   6.4507958918260515        6.9150916357761947      -0.58977944837977792        6.5794360301140431     
 -0.13460000000000000        2.5139999999999999E-002   6.4363152981624125        6.8980046674494853      -0.58072390338700863        6.5628987988401821     
 -0.10150000000000001        2.5460000000000000E-002   6.4514817916166960        6.9162985786751578      -0.57522882954906773        6.5800739144865474     
  -6.8269999999999997E-002   2.5930000000000002E-002   6.4631076176067310        6.9306646821745819      -0.56682610951578183        6.5935643169065727     
  -3.5090000000000003E-002   2.6730000000000000E-002   6.4658282955020425        6.9342850752693650      -0.55651317266657740        6.5970498476523449     
  -1.9330000000000000E-003   2.8379999999999999E-002   6.4551544690614131        6.9190029567658033      -0.55293843991661573        6.5827715451964357     
   2.3230000000000001E-002   3.1280000000000002E-002   6.7192550817468870        7.2327048463936361      -0.56582642725264032        6.8825431238668413     
   4.8379999999999999E-002   3.4790000000000001E-002   7.1746790056944958        7.7846336221936445      -0.58885529367246769        7.4128970677462842     
   7.3499999999999996E-002   3.8570000000000000E-002   7.2188499055434576        7.8413260697865876      -0.59997788678479669        7.4683591320126412     
   9.8610000000000003E-002   4.2490000000000000E-002   7.2243372569979147        7.8477060819534863      -0.61091826100345270        7.4749501195310311     
  0.12370000000000000        4.6489999999999997E-002   7.2396631738373181        7.8657300655445823      -0.62366895100315889        7.4926362685646231     
  0.14879999999999999        5.0540000000000002E-002   7.2452467596697518        7.8722988514888055      -0.63394714044156519        7.4993861371667716     
  0.17390000000000000        5.4609999999999999E-002   7.2477942749124900        7.8749053055795404      -0.64366209884688286        7.5023406150615566     
  0.19900000000000001        5.8709999999999998E-002   7.2536647322808783        7.8816777638628910      -0.65450204102196297        7.5092325844170444     
  0.22409999999999999        6.2810000000000005E-002   7.2668323617173627        7.8969769858714542      -0.66810297268213636        7.5244551279530789     
  0.24920000000000000        6.6909999999999997E-002   7.2646756778101667        7.8941321781036571      -0.67594584727816664        7.5221489484823767     
  0.27429999999999999        7.1020000000000000E-002   7.2735277377795855        7.9041681052941080      -0.69035107444826527        7.5323443273448500     
  0.29940000000000000        7.5100000000000000E-002   7.2713317361640275        7.9011644449456657      -0.69973176212236310        7.5299352786056017     
  0.32450000000000001        7.9170000000000004E-002   7.2783751949330036        7.9089952554335223      -0.71370054848314446        7.5379985407061891     
  0.34960000000000002        8.3210000000000006E-002   7.2748509341296534        7.9041813668460073      -0.72759176518282120        7.5341262972189345     
  0.37469999999999998        8.7200000000000000E-002   7.2833524935634468        7.9134861999655826      -0.74564908530443885        7.5438291957507868     
  0.39979999999999999        9.1120000000000007E-002   7.2790299652624029        7.9074527667842176      -0.76332259746098763        7.5389434211826263     
  0.42490000000000000        9.4930000000000000E-002   7.2818730848513136        7.9094551570990337      -0.79070732495162255        7.5421271953330944     
  0.45000000000000001        9.8530000000000006E-002   7.2729404507555246        7.8973515585806400      -0.82168351709903487        7.5317166434063871     
  0.47520000000000001       0.10170000000000000        7.2599001984149485        7.8794706223816036      -0.86494012308163493        7.5156891446977809     
  0.50029999999999997       0.10370000000000000        7.2022286642191675        7.8105599548187907      -0.88518043987548956        7.4449961773174991     
  0.52539999999999998       0.10170000000000000        7.5013130541613720        8.1733400389798803      -0.88337725282011570        7.7976306428199473     
  0.55049999999999999        9.8460000000000006E-002   7.4590499354833835        8.1242295219297134      -0.84305876905784405        7.7503460226235781     
  0.57560000000000000        9.4850000000000004E-002   7.4099873980606050        8.0651647839021177      -0.81173202110819076        7.6928118078092975     
  0.60070000000000001        9.1039999999999996E-002   7.3877977158162853        8.0387028882645204      -0.78908879919867436        7.6662675347025848     
  0.62580000000000002        8.7110000000000007E-002   7.3603761416282527        8.0068611927297919      -0.76689189173046945        7.6343951597941899     
  0.65090000000000003        8.3119999999999999E-002   7.3497927933966398        7.9943531126722363      -0.75293895218007889        7.6217897775724968     
  0.67600000000000005        7.9079999999999998E-002   7.3375031384407743        7.9800996983089325      -0.73770443119985285        7.6074011444070653     
  0.70109999999999995        7.5009999999999993E-002   7.3244976894018023        7.9647276746840188      -0.72519147295106534        7.5921528865628112     
  0.72619999999999996        7.0919999999999997E-002   7.3241465926535625        7.9647061607237069      -0.71580588541959544        7.5915859629157740     
  0.75129999999999997        6.6820000000000004E-002   7.3254893768799834        7.9667497949527117      -0.70975177850057936        7.5930539994784807     
  0.77649999999999997        6.2710000000000002E-002   7.3160699515346348        7.9557163330241831      -0.69966124847430444        7.5821694168587452     
  0.80159999999999998        5.8610000000000002E-002   7.2987920138092113        7.9353382978403335      -0.69040069760047795        7.5622158874458840     