VARIABLES = "X" "Y" "Ust1" "Ust2" "Ust3" "Ust4"
ZONE I=  71    J=   48
 -0.50000000000000000        0.0000000000000000       -1.0206688867979129E-013  -6.7384303066850491E-007  -2.3721301275112326E-007  -1.1482524976476520E-013
 -0.46670000000000000        0.0000000000000000       -1.0504749992321740E-013  -6.8351614905323287E-007  -2.4092150920901807E-007  -1.1858877921019465E-013
 -0.43330000000000002        0.0000000000000000       -1.0590939089673002E-013  -6.8615305342479459E-007  -2.4236530642710899E-007  -1.1914806475882128E-013
 -0.40000000000000002        0.0000000000000000       -1.0604095727971282E-013  -6.8630254868605098E-007  -2.4329734496212711E-007  -1.1929607693967693E-013
 -0.36670000000000003        0.0000000000000000       -1.0829046973216860E-013  -6.9336506262852259E-007  -2.4636809571658132E-007  -1.2182677844868968E-013
 -0.33329999999999999        0.0000000000000000       -1.0967683827624403E-013  -6.9752494770043702E-007  -2.4868280744102522E-007  -1.2338644306077453E-013
 -0.29999999999999999        0.0000000000000000       -1.1094465950304037E-013  -7.0105862922779470E-007  -2.5147583561939962E-007  -1.2481274194092043E-013
 -0.26669999999999999        0.0000000000000000       -1.1319765479510736E-013  -7.0795840746779431E-007  -2.5452537647792669E-007  -1.2734736164449577E-013
 -0.23330000000000001        0.0000000000000000       -1.1538282551718392E-013  -7.1434889947079152E-007  -2.5810807312213010E-007  -1.2980567870683190E-013
 -0.20000000000000001        0.0000000000000000       -1.1722636947155339E-013  -7.1942305496313685E-007  -2.6184406685144789E-007  -1.3187966565549756E-013
 -0.16669999999999999        0.0000000000000000       -1.2089562730880992E-013  -7.3012432938612691E-007  -2.6720142249348355E-007  -1.3600758072241115E-013
 -0.13330000000000000        0.0000000000000000       -1.2565006805710829E-013  -7.4343924464147542E-007  -2.7486074621977193E-007  -1.4135632656424682E-013
 -0.10000000000000001        0.0000000000000000       -1.3153675966453650E-013  -7.5936490275058780E-007  -2.8469060889553773E-007  -1.4797885462260357E-013
  -6.6669999999999993E-002   0.0000000000000000       -1.4255334628567630E-013  -7.8850492975456695E-007  -3.0170632605428225E-007  -1.6037251457138583E-013
  -3.3329999999999999E-002   0.0000000000000000       -1.6362650684923978E-013  -8.4067163448500489E-007  -3.3377198387307746E-007  -1.8376023718420482E-013
   0.0000000000000000        0.0000000000000000       -1.3570590637469790E-013  -7.3648766529086264E-007  -3.6893827498369637E-007  -1.5319924586831131E-013
   2.5000000000000001E-002   4.4099999999999999E-003  -5.1920179529512925E-014  -4.4933149826576902E-007  -2.4021261897287999E-007  -5.8410201970702036E-014
   5.0000000000000003E-002   8.8199999999999997E-003  -4.4579557640142666E-014  -4.2013869731077113E-007  -2.1536309624150129E-007  -5.0152002345160497E-014
   7.4999999999999997E-002   1.3230000000000000E-002  -4.0286735538926886E-014  -4.0162371179737800E-007  -2.0032990744453216E-007  -4.5322577481292747E-014
  0.10000000000000001        1.7639999999999999E-002  -3.7238948621670193E-014  -3.8769963025828379E-007  -1.8943003934419751E-007  -4.2184746485485764E-014
  0.12500000000000000        2.2050000000000000E-002  -3.4574048929157988E-014  -3.7483226054032361E-007  -1.7991948505935549E-007  -3.8355585530784643E-014
  0.14999999999999999        2.6460000000000001E-002  -3.2870616032007109E-014  -3.6650496831469188E-007  -1.7328354901918634E-007  -3.6979443036007995E-014
  0.17499999999999999        3.0870000000000002E-002  -3.0810571995298687E-014  -3.5576380431254085E-007  -1.6578593280964403E-007  -3.4661893494711026E-014
  0.20000000000000001        3.5279999999999999E-002  -2.9573001022088304E-014  -3.4931729397335164E-007  -1.6075581868653647E-007  -3.3269626149849340E-014
  0.22500000000000001        3.9690000000000003E-002  -2.7691137898479067E-014  -3.3886462574678861E-007  -1.5370899423874322E-007  -3.1152530135788947E-014
  0.25000000000000000        4.4100000000000000E-002  -2.6542853543935700E-014  -3.3248589982452557E-007  -1.4888718594142247E-007  -3.0275442323551658E-014
  0.27500000000000002        4.8509999999999998E-002  -2.4920285504430879E-014  -3.2288177721334714E-007  -1.4264916917285677E-007  -2.7645941731478008E-014
  0.29999999999999999        5.2920000000000002E-002  -2.3774548962788848E-014  -3.1609219370511568E-007  -1.3768975957794822E-007  -2.6374890255593879E-014
  0.32500000000000001        5.7329999999999999E-002  -2.2119742503382977E-014  -3.0564910659337641E-007  -1.3106233690723985E-007  -2.4884710316305848E-014
  0.34999999999999998        6.1740000000000003E-002  -2.0920364833135984E-014  -2.9799749185088880E-007  -1.2569534206270491E-007  -2.3535410437277981E-014
  0.37500000000000000        6.6150000000000000E-002  -1.9131824033152362E-014  -2.8582707805938230E-007  -1.1816091406974836E-007  -2.1523302037296408E-014
  0.40000000000000002        7.0559999999999998E-002  -1.7657612496563562E-014  -2.7549949648095528E-007  -1.1130179657830609E-007  -1.9864814058634006E-014
  0.42499999999999999        7.4969999999999995E-002  -1.5531333822187954E-014  -2.5944763065651792E-007  -1.0170347121735515E-007  -1.6987396368018074E-014
  0.45000000000000001        7.9380000000000006E-002  -1.3493633745169656E-014  -2.4304790487494847E-007  -9.1629060137855484E-008  -1.5602014017852416E-014
  0.47499999999999998        8.3790000000000003E-002  -1.0143276601405414E-014  -2.1251992714755576E-007  -7.4509486457933062E-008  -1.1094208782787171E-014
  0.50000000000000000        8.8200000000000001E-002  -4.4711665899008113E-015  -1.4390612430172562E-007  -4.0581527053086642E-008  -5.0300624136384126E-015
  0.52500000000000002        8.3790000000000003E-002  -1.0248092624383033E-014  -2.1377484702131240E-007  -7.4436401732820882E-008  -1.1529104202430912E-014
  0.55000000000000004        7.9380000000000006E-002  -1.3378768237346472E-014  -2.4221846173417167E-007  -9.0686592073274000E-008  -1.5051114267014782E-014
  0.57499999999999996        7.4969999999999995E-002  -1.5885937386509142E-014  -2.6253518104098026E-007  -1.0249373467839895E-007  -1.7871679559822785E-014
  0.59999999999999998        7.0559999999999998E-002  -1.8033612920670430E-014  -2.7857182147591380E-007  -1.1209730096190785E-007  -2.0569589737639708E-014
  0.62500000000000000        6.6150000000000000E-002  -1.9578489485554292E-014  -2.8928717479728049E-007  -1.1918631601647927E-007  -2.2025800671248580E-014
  0.65000000000000002        6.1740000000000003E-002  -2.1232236865528441E-014  -3.0044665265045492E-007  -1.2606741545213092E-007  -2.3886266473719496E-014
  0.67500000000000004        5.7329999999999999E-002  -2.2460514855153641E-014  -3.0823957904274623E-007  -1.3149500441963557E-007  -2.5268079212047845E-014
  0.69999999999999996        5.2920000000000002E-002  -2.4114359198267805E-014  -3.1859921672865122E-007  -1.3808090053019759E-007  -2.7128654098051280E-014
  0.72499999999999998        4.8509999999999998E-002  -2.5320414211408842E-014  -3.2570394148654199E-007  -1.4324459346578121E-007  -2.8485465987834947E-014
  0.75000000000000000        4.4100000000000000E-002  -2.6908169670004054E-014  -3.3504049912822705E-007  -1.4929404641153791E-007  -3.0271690878754558E-014
  0.77500000000000002        3.9690000000000003E-002  -2.8035164545900644E-014  -3.4121936722113618E-007  -1.5409466623706497E-007  -3.1101510668108528E-014
  0.80000000000000004        3.5279999999999999E-002  -2.9912243524763548E-014  -3.5158171436727253E-007  -1.6109474152308452E-007  -3.3651273965358989E-014
  0.82499999999999996        3.0870000000000002E-002  -3.1184735343833828E-014  -3.5819127201434764E-007  -1.6620075021465754E-007  -3.5082827261813054E-014
  0.84999999999999998        2.6460000000000001E-002  -3.3301103468174638E-014  -3.6915348041949578E-007  -1.7387128927758225E-007  -3.7463741401696468E-014
  0.87500000000000000        2.2050000000000000E-002  -3.5505980826235143E-014  -3.8014650937528357E-007  -1.8171003148138540E-007  -3.9944228429514537E-014
  0.90000000000000002        1.7639999999999999E-002  -3.7680655538714165E-014  -3.9029957416923288E-007  -1.8991977279074860E-007  -4.2685117602449641E-014
  0.92500000000000004        1.3230000000000000E-002  -4.0676407954490614E-014  -4.0401220934005985E-007  -2.0039005583266989E-007  -4.5760958948801939E-014
  0.94999999999999996        8.8199999999999997E-003  -4.4814793703549469E-014  -4.2162161961712961E-007  -2.1519567465258314E-007  -5.0766758492302132E-014
  0.97499999999999998        4.4099999999999999E-003  -5.2433968192129676E-014  -4.5199950139996802E-007  -2.4055413464506285E-007  -5.8988214216145884E-014
   1.0000000000000000        0.0000000000000000       -1.3065028049389403E-013  -7.2216294971577355E-007  -3.6294913765887622E-007  -1.4647121289745150E-013
   1.0329999999999999        0.0000000000000000       -1.6856025511379671E-013  -8.5391018677922382E-007  -3.3710334985538040E-007  -1.8995950625129042E-013
   1.0669999999999999        0.0000000000000000       -1.4578532559725563E-013  -7.9785455312118798E-007  -3.0389922680078607E-007  -1.6400849129691258E-013
   1.1000000000000001        0.0000000000000000       -1.2641031461810871E-013  -7.4350469833260289E-007  -2.8151791532320803E-007  -1.4221160394537230E-013
   1.1330000000000000        0.0000000000000000       -1.2817952708955299E-013  -7.5128876739840441E-007  -2.7651911946335330E-007  -1.4420196797574711E-013
   1.1670000000000000        0.0000000000000000       -1.2297930956879046E-013  -7.3674294625814431E-007  -2.6852630966602835E-007  -1.3787133533688618E-013
   1.2000000000000000        0.0000000000000000       -1.1122911549461306E-013  -7.0003136921501925E-007  -2.5710243014806133E-007  -1.2513275493143969E-013
   1.2330000000000001        0.0000000000000000       -1.1811925820246816E-013  -7.2314321957621225E-007  -2.6011569539980191E-007  -1.3288416547777669E-013
   1.2669999999999999        0.0000000000000000       -1.1536570802356935E-013  -7.1507170220084971E-007  -2.5593163311606547E-007  -1.2978642152651553E-013
   1.3000000000000000        0.0000000000000000       -1.0673317789123241E-013  -6.8690896456925564E-007  -2.4864022975090156E-007  -1.2007482512763645E-013
   1.3330000000000000        0.0000000000000000       -1.1039939172752232E-013  -7.0017168366661066E-007  -2.4850869608346290E-007  -1.2419931569346260E-013
   1.3670000000000000        0.0000000000000000       -1.1018160918054418E-013  -6.9974371059153700E-007  -2.4752128270178265E-007  -1.2395431032811220E-013
   1.3999999999999999        0.0000000000000000       -1.0192393289112184E-013  -6.7216291082558758E-007  -2.4045100491806222E-007  -1.1466442450251207E-013
   1.4330000000000001        0.0000000000000000       -1.0791872163327616E-013  -6.9297488252191440E-007  -2.4367892883904876E-007  -1.2140856183743569E-013
   1.4670000000000001        0.0000000000000000       -1.0705590825299827E-013  -6.9036022139501445E-007  -2.4224431052234033E-007  -1.2001970964300979E-013
   1.5000000000000000        0.0000000000000000       -1.0705590825299827E-013  -6.9036022139501445E-007  -2.4224431052234033E-007  -1.2001970964300979E-013
 -0.50000000000000000        1.1830000000000000E-002   4.0000000000000000        4.0000000000000000        0.0000000000000000        3.7857142857142865     
 -0.46670000000000000        1.1870000000000000E-002                       NaN                       NaN                       NaN                       NaN
 -0.43340000000000001        1.1900000000000001E-002                       NaN                       NaN                       NaN                       NaN
 -0.40020000000000000        1.1930000000000000E-002                       NaN                       NaN                       NaN                       NaN
 -0.36690000000000000        1.1970000000000000E-002                       NaN                       NaN                       NaN                       NaN
 -0.33360000000000001        1.2010000000000000E-002                       NaN                       NaN                       NaN                       NaN
 -0.30030000000000001        1.2060000000000000E-002                       NaN                       NaN                       NaN                       NaN
 -0.26710000000000000        1.2109999999999999E-002                       NaN                       NaN                       NaN                       NaN
 -0.23380000000000001        1.2170000000000000E-002                       NaN                       NaN                       NaN                       NaN
 -0.20050000000000001        1.2239999999999999E-002                       NaN                       NaN                       NaN                       NaN
 -0.16730000000000000        1.2330000000000001E-002                       NaN                       NaN                       NaN                       NaN
 -0.13400000000000001        1.2449999999999999E-002                       NaN                       NaN                       NaN                       NaN
 -0.10070000000000000        1.2610000000000000E-002                       NaN                       NaN                       NaN                       NaN
  -6.7460000000000006E-002   1.2860000000000000E-002                       NaN                       NaN                       NaN                       NaN
  -3.4209999999999997E-002   1.3299999999999999E-002                       NaN                       NaN                       NaN                       NaN
  -9.5859999999999999E-004   1.4400000000000000E-002                       NaN                       NaN                       NaN                       NaN
   2.4119999999999999E-002   1.7809999999999999E-002                       NaN                       NaN                       NaN                       NaN
   4.9189999999999998E-002   2.1720000000000000E-002                       NaN                       NaN                       NaN                       NaN
   7.4249999999999997E-002   2.5800000000000000E-002                       NaN                       NaN                       NaN                       NaN
   9.9309999999999996E-002   2.9960000000000001E-002                       NaN                       NaN                       NaN                       NaN
  0.12440000000000000        3.4160000000000003E-002                       NaN                       NaN                       NaN                       NaN
  0.14940000000000001        3.8390000000000001E-002                       NaN                       NaN                       NaN                       NaN
  0.17449999999999999        4.2630000000000001E-002                       NaN                       NaN                       NaN                       NaN
  0.19950000000000001        4.6890000000000001E-002                       NaN                       NaN                       NaN                       NaN
  0.22459999999999999        5.1139999999999998E-002                       NaN                       NaN                       NaN                       NaN
  0.24959999999999999        5.5399999999999998E-002                       NaN                       NaN                       NaN                       NaN
  0.27470000000000000        5.9659999999999998E-002                       NaN                       NaN                       NaN                       NaN
  0.29970000000000002        6.3909999999999995E-002                       NaN                       NaN                       NaN                       NaN
  0.32479999999999998        6.8150000000000002E-002                       NaN                       NaN                       NaN                       NaN
  0.34980000000000000        7.2380000000000000E-002                       NaN                       NaN                       NaN                       NaN
  0.37490000000000001        7.6579999999999995E-002                       NaN                       NaN                       NaN                       NaN
  0.39989999999999998        8.0750000000000002E-002                       NaN                       NaN                       NaN                       NaN
  0.42499999999999999        8.4860000000000005E-002                       NaN                       NaN                       NaN                       NaN
  0.45000000000000001        8.8880000000000001E-002                       NaN                       NaN                       NaN                       NaN
  0.47510000000000002        9.2649999999999996E-002                       NaN                       NaN                       NaN                       NaN
  0.50009999999999999        9.5600000000000004E-002                       NaN                       NaN                       NaN                       NaN
  0.52520000000000000        9.2619999999999994E-002                       NaN                       NaN                       NaN                       NaN
  0.55020000000000002        8.8830000000000006E-002                       NaN                       NaN                       NaN                       NaN
  0.57530000000000003        8.4820000000000007E-002                       NaN                       NaN                       NaN                       NaN
  0.60040000000000004        8.0710000000000004E-002                       NaN                       NaN                       NaN                       NaN
  0.62539999999999996        7.6539999999999997E-002                       NaN                       NaN                       NaN                       NaN
  0.65049999999999997        7.2330000000000005E-002                       NaN                       NaN                       NaN                       NaN
  0.67549999999999999        6.8099999999999994E-002                       NaN                       NaN                       NaN                       NaN
  0.70060000000000000        6.3860000000000000E-002                       NaN                       NaN                       NaN                       NaN
  0.72560000000000002        5.9610000000000003E-002                       NaN                       NaN                       NaN                       NaN
  0.75070000000000003        5.5350000000000003E-002                       NaN                       NaN                       NaN                       NaN
  0.77569999999999995        5.1090000000000003E-002                       NaN                       NaN                       NaN                       NaN
  0.80079999999999996        4.6840000000000000E-002                       NaN                       NaN                       NaN                       NaN
  0.82579999999999998        4.2580000000000000E-002                       NaN                       NaN                       NaN                       NaN
  0.85089999999999999        3.8339999999999999E-002                       NaN                       NaN                       NaN                       NaN
  0.87600000000000000        3.4110000000000001E-002                       NaN                       NaN                       NaN                       NaN
  0.90100000000000002        2.9909999999999999E-002                       NaN                       NaN                       NaN                       NaN
  0.92610000000000003        2.5739999999999999E-002                       NaN                       NaN                       NaN                       NaN
  0.95109999999999995        2.1669999999999998E-002                       NaN                       NaN                       NaN                       NaN
  0.97619999999999996        1.7760000000000001E-002                       NaN                       NaN                       NaN                       NaN
   1.0009999999999999        1.4370000000000001E-002                       NaN                       NaN                       NaN                       NaN
   1.0340000000000000        1.3290000000000000E-002                       NaN                       NaN                       NaN                       NaN
   1.0680000000000001        1.2860000000000000E-002                       NaN                       NaN                       NaN                       NaN
   1.1010000000000000        1.2610000000000000E-002                       NaN                       NaN                       NaN                       NaN
   1.1339999999999999        1.2449999999999999E-002                       NaN                       NaN                       NaN                       NaN
   1.1670000000000000        1.2330000000000001E-002                       NaN                       NaN                       NaN                       NaN
   1.2010000000000001        1.2239999999999999E-002                       NaN                       NaN                       NaN                       NaN
   1.2340000000000000        1.2170000000000000E-002                       NaN                       NaN                       NaN                       NaN
   1.2669999999999999        1.2109999999999999E-002                       NaN                       NaN                       NaN                       NaN
   1.3000000000000000        1.2060000000000000E-002                       NaN                       NaN                       NaN                       NaN
   1.3340000000000001        1.2010000000000000E-002                       NaN                       NaN                       NaN                       NaN
   1.3670000000000000        1.1970000000000000E-002                       NaN                       NaN                       NaN                       NaN
   1.3999999999999999        1.1930000000000000E-002                       NaN                       NaN                       NaN                       NaN
   1.4330000000000001        1.1900000000000001E-002                       NaN                       NaN                       NaN                       NaN
   1.4670000000000001        1.1870000000000000E-002                       NaN                       NaN                       NaN                       NaN
   1.5000000000000000        1.1830000000000000E-002   4.0000000000000000        4.0000000000000000        0.0000000000000000        3.7857142857142865     
 -0.50000000000000000        2.3910000000000001E-002   4.0000000000000000        4.0000000000000000        0.0000000000000000        3.7857142857142865     
 -0.46679999999999999        2.3970000000000002E-002   3.9994302091688336        3.9993320578231182        6.3334040692205565E-004   3.7850732710292245     
 -0.43359999999999999        2.4039999999999999E-002   3.9996193152341708        3.9995662506103629        5.6476496152330850E-004   3.7852860153527286     
 -0.40029999999999999        2.4109999999999999E-002   3.9995916514108805        3.9995089205692089        6.1783596496482653E-004   3.7852548935515271     
 -0.36709999999999998        2.4180000000000000E-002   3.9994701533027497        3.9993632973711590        6.0696433451141736E-004   3.7851182081798802     
 -0.33389999999999997        2.4260000000000000E-002   3.9995391667320317        3.9994522204724494        5.8195666940546412E-004   3.7851958482878221     
 -0.30070000000000002        2.4350000000000000E-002   3.9995379203545358        3.9994524928540844        6.1095006179180862E-004   3.7851944461131395     
 -0.26750000000000002        2.4459999999999999E-002   3.9996418653695267        3.9995668073123283        5.8068677039606678E-004   3.7853113842550039     
 -0.23430000000000001        2.4580000000000001E-002   3.9995619026125024        3.9994868055808430        5.8314844151398609E-004   3.7852214261533517     
 -0.20110000000000000        2.4719999999999999E-002   3.9998033457421842        3.9997915224924792        5.0402762699540686E-004   3.7854930496742436     
 -0.16780000000000000        2.4910000000000002E-002   3.9998214232539211        3.9997807299492516        5.3893971820879192E-004   3.7855133868749480     
 -0.13460000000000000        2.5139999999999999E-002   3.9995737061817751        3.9994749261045022        5.7263432624342792E-004   3.7852347051687834     
 -0.10150000000000001        2.5460000000000000E-002   3.9999500210063816        3.9999413755769289        4.8190620062478083E-004   3.7856580593464657     
  -6.8269999999999997E-002   2.5930000000000002E-002   4.0002987077145162        4.0003554684859557        4.1443376334234492E-004   3.7860503318931169     
  -3.5090000000000003E-002   2.6730000000000000E-002   4.0005184400578218        4.0006290830264328        2.4360071167649403E-004   3.7862975307793363     
  -1.9330000000000000E-003   2.8379999999999999E-002   3.9926206096707322        3.9913143855138165       -2.7347081198742499E-004   3.7774124715938600     
   2.3230000000000001E-002   3.1280000000000002E-002   3.9875776196350006        3.9853558122856874        9.5568205286235809E-005   3.7717391078036622     
   4.8379999999999999E-002   3.4790000000000001E-002   3.9981078268266064        3.9977661971482195        4.1737260240490986E-004   3.7835855908942189     
   7.3499999999999996E-002   3.8570000000000000E-002   3.9981916246302980        3.9978570222524681        5.0938226826880957E-004   3.7836798634233717     
   9.8610000000000003E-002   4.2490000000000000E-002   3.9981826841212871        3.9978475294782663        5.8265944830643843E-004   3.7836698053507347     
  0.12370000000000000        4.6489999999999997E-002   3.9983656746347251        3.9980745527484993        5.7595505728930043E-004   3.7838756696783524     
  0.14879999999999999        5.0540000000000002E-002   3.9983816010167819        3.9980932681248973        6.2188565211859239E-004   3.7838935868581660     
  0.17390000000000000        5.4609999999999999E-002   3.9983762962398974        3.9980714827333959        6.5329438319772844E-004   3.7838876189841715     
  0.19900000000000001        5.8709999999999998E-002   3.9983530783022094        3.9980591428278234        6.8268550379961253E-004   3.7838614988042720     
  0.22409999999999999        6.2810000000000005E-002   3.9985599360690891        3.9983028972636618        6.0096475938929944E-004   3.7840942137920117     
  0.24920000000000000        6.6909999999999997E-002   3.9983211551046507        3.9980215987508188        7.2131747190015087E-004   3.7838255852070182     
  0.27429999999999999        7.1020000000000000E-002   3.9984783672837723        3.9982068847425882        6.3724523595544609E-004   3.7840024489085304     
  0.29940000000000000        7.5100000000000000E-002   3.9982476809935728        3.9979349669437068        7.5048166057028077E-004   3.7837429268320557     
  0.32450000000000001        7.9170000000000004E-002   3.9982934982954434        3.9979891438138764        7.4013953742210574E-004   3.7837944712966602     
  0.34960000000000002        8.3210000000000006E-002   3.9980885819997201        3.9977474621549898        7.8726280406131010E-004   3.7835639404639716     
  0.37469999999999998        8.7200000000000000E-002   3.9981226795420173        3.9977877738784633        7.6918148810287601E-004   3.7836023001990560     
  0.39979999999999999        9.1120000000000007E-002   3.9978054720117249        3.9974123790818288        8.6062690731739122E-004   3.7832454417274772     
  0.42490000000000000        9.4930000000000000E-002   3.9975988585693760        3.9971826469667362        8.1432005048383055E-004   3.7830130016048349     
  0.45000000000000001        9.8530000000000006E-002   3.9970485490324941        3.9965577623633828        9.9312694781406594E-004   3.7823939033758420     
  0.47520000000000001       0.10170000000000000        3.9962213628020593        3.9955540298988148        1.2576975826708054E-003   3.7814633188666034     
  0.50029999999999997       0.10370000000000000        3.9931664936266271        3.9918266819802484        3.4790660014700652E-003   3.7780265910442421     
  0.52539999999999998       0.10170000000000000        4.0025220409685049        4.0029733295689134        1.4218819002926445E-003   3.7885515818038544     
  0.55049999999999999        9.8460000000000006E-002   4.0016547806846035        4.0019348464496574        9.8549270442827930E-004   3.7875759139844649     
  0.57560000000000000        9.4850000000000004E-002   4.0009161314485917        4.0010593385065016        7.8060386924777331E-004   3.7867449335939520     
  0.60070000000000001        9.1039999999999996E-002   4.0005013190891363        4.0005879569291238        7.0116033478138386E-004   3.7862782696895652     
  0.62580000000000002        8.7110000000000007E-002   4.0000557648199813        4.0000656338771394        7.6638383050496128E-004   3.7857770211367647     
  0.65090000000000003        8.3119999999999999E-002   4.0000125902862580        4.0000095275479151        6.9776828762378458E-004   3.7857284497863266     
  0.67600000000000005        7.9079999999999998E-002   3.9997931618742668        3.9997511312351945        7.6481865823839967E-004   3.7854815928228369     
  0.70109999999999995        7.5009999999999993E-002   3.9996366591771082        3.9995569554526047        7.5980604122836189E-004   3.7853055272885334     
  0.72619999999999996        7.0919999999999997E-002   3.9996841625319259        3.9996432029715381        7.3084911075157848E-004   3.7853589685627029     
  0.75129999999999997        6.6820000000000004E-002   3.9997930947374041        3.9997811498599014        6.3192630730614342E-004   3.7854815172938663     
  0.77649999999999997        6.2710000000000002E-002   3.9997820972887390        3.9997482810870286        6.6976501550396845E-004   3.7854691451641176     
  0.80159999999999998        5.8610000000000002E-002   3.9994863146855026        3.9993942691708355        6.5471609708401201E-004   3.7851363897354773     