VARIABLES = "X" "Y" "Ust1" "Ust2" "Ust3" "Ust4"
ZONE I=  71    J=   48
 -0.50000000000000000        0.0000000000000000        3.9999999999999991        3.9999999999999991       -0.0000000000000000        4.2696359856361805E+208
 -0.46670000000000000        0.0000000000000000       0.15378074187601262        5.0903321112116920E+099   0.0000000000000000        1.6408181075458090E+207
 -0.43330000000000002        0.0000000000000000       0.17759976305882802        2.1102039785394147E+100   0.0000000000000000        1.8929488669110377E+207
 -0.40000000000000002        0.0000000000000000       0.18118995817367362        2.1330731329360955E+100   0.0000000000000000        1.9305806206333667E+207
 -0.36670000000000003        0.0000000000000000       0.18282741279010675        2.8670555232197973E+100   0.0000000000000000        1.9472317350209393E+207
 -0.33329999999999999        0.0000000000000000       0.18581230673552465        4.3658757019889589E+100   0.0000000000000000        1.9761261708110531E+207
 -0.29999999999999999        0.0000000000000000       0.18950516363109715        5.1619289589712376E+100   0.0000000000000000        2.0144972214078040E+207
 -0.26669999999999999        0.0000000000000000       0.19315472123532368        5.9699040740209712E+100   0.0000000000000000        2.0509036248429653E+207
 -0.23330000000000001        0.0000000000000000       0.19776388204635628        7.5513554356689847E+100   0.0000000000000000        2.0965562894934883E+207
 -0.20000000000000001        0.0000000000000000       0.20369978315476442        8.4212190236880705E+100   0.0000000000000000        2.1582820978707009E+207
 -0.16669999999999999        0.0000000000000000       0.21058489229284119        8.4937914363041295E+100   0.0000000000000000        2.2284939458795562E+207
 -0.13330000000000000        0.0000000000000000       0.21825699177425656        1.0106604496972513E+101   0.0000000000000000        2.3061199156648038E+207
 -0.10000000000000001        0.0000000000000000       0.22978962255606539        1.1726733201104990E+101   0.0000000000000000        2.4278436419555058E+207
  -6.6669999999999993E-002   0.0000000000000000       0.24858873276700630        1.2384507809844227E+101   0.0000000000000000        2.6252427289114209E+207
  -3.3329999999999999E-002   0.0000000000000000       0.28084496451509233        1.1723220953412691E+101   0.0000000000000000        2.9693662168436557E+207
   0.0000000000000000        0.0000000000000000                            NaN                       NaN                       NaN                       NaN
   2.5000000000000001E-002   4.4099999999999999E-003  0.31533729663917454       -2.7540280987103334E+101  -4.8581055661250266E+100   3.3305543174642243E+207
   5.0000000000000003E-002   8.8199999999999997E-003  0.26028417337954679       -2.5663483751380555E+101  -4.5270385337435305E+100   2.7402119079132183E+207
   7.4999999999999997E-002   1.3230000000000000E-002  0.23309718928242149       -2.4643236811823916E+101  -4.3470669736057395E+100   2.4470287851377553E+207
  0.10000000000000001        1.7639999999999999E-002  0.21384960788436966       -2.3887220985606999E+101  -4.2137057818610751E+100   2.2383684753333624E+207
  0.12500000000000000        2.2050000000000000E-002  0.19851832348358481       -2.3149169757777951E+101  -4.0835135452720316E+100   2.0696797435323421E+207
  0.14999999999999999        2.6460000000000001E-002  0.18489291177401879       -2.2575598842752374E+101  -3.9823356358615200E+100   1.9250440300315940E+207
  0.17499999999999999        3.0870000000000002E-002  0.17316424804453706       -2.2006305467891652E+101  -3.8819122845360844E+100   1.7942163354030941E+207
  0.20000000000000001        3.5279999999999999E-002  0.16200999421776888       -2.1536807448141640E+101  -3.7990928338521842E+100   1.6761529198689695E+207
  0.22500000000000001        3.9690000000000003E-002  0.15215601861013578       -2.1012213320755799E+101  -3.7065544297813247E+100   1.5651594060135898E+207
  0.25000000000000000        4.4100000000000000E-002  0.14153640350061586       -2.0418098273855429E+101  -3.6017525355080945E+100   1.4531434485866726E+207
  0.27500000000000002        4.8509999999999998E-002  0.13260323675580413       -1.9878028607879025E+101  -3.5064842464298615E+100   1.3524927217058164E+207
  0.29999999999999999        5.2920000000000002E-002  0.12212605140757571       -1.9117962781906841E+101  -3.3724086347283679E+100   1.2424818559917854E+207
  0.32500000000000001        5.7329999999999999E-002  0.11271688285003538       -1.8350439073846102E+101  -3.2370174526264534E+100   1.1380378509559011E+207
  0.34999999999999998        6.1740000000000003E-002  0.10197160736690944       -1.7374617778842781E+101  -3.0648825761878676E+100   1.0258582362595164E+207
  0.37500000000000000        6.6150000000000000E-002   9.1413226801244751E-002  -1.6244761310295221E+101  -2.8655758951360724E+100   9.1113881563805435E+206
  0.40000000000000002        7.0559999999999998E-002   7.8991481855656367E-002  -1.4767816759639555E+101  -2.6050428764004160E+100   7.8295132935821906E+206
  0.42499999999999999        7.4969999999999995E-002   6.5950057813791693E-002  -1.2966341823427734E+101  -2.2872626976526550E+100   6.4545943649356979E+206
  0.45000000000000001        7.9380000000000006E-002   5.0678153462470871E-002  -1.0691238857653518E+101  -1.8859345344900828E+100   4.9006268032340002E+206
  0.47499999999999998        8.3790000000000003E-002   3.5383530674161903E-002  -8.3913323833492338E+100  -1.4802310324228041E+100   3.2995754282933351E+206
  0.50000000000000000        8.8200000000000001E-002   8.0631937117708486E-003  -1.8372391060545397E+099  -0.0000000000000000        8.6106335471626483E+205
  0.52500000000000002        8.3790000000000003E-002   2.5162660758546805E-002   3.9434954102533550E+100  -6.9563259036869084E+099   2.4574447725465629E+206
  0.55000000000000004        7.9380000000000006E-002   4.5744407715239223E-002   7.1681102050884919E+100  -1.2644546401776127E+100   4.4607945593067497E+206
  0.57499999999999996        7.4969999999999995E-002   6.1983295707818221E-002   9.3708697967969248E+100  -1.6530214321549812E+100   6.1002607094294207E+206
  0.59999999999999998        7.0559999999999998E-002   7.4990946436702885E-002   1.0979625763526093E+101  -1.9368059846859999E+100   7.4382848827955911E+206
  0.62500000000000000        6.6150000000000000E-002   8.7133083527376476E-002   1.2255474885048708E+101  -2.1618657697225888E+100   8.6716796941213255E+206
  0.65000000000000002        6.1740000000000003E-002   9.7484450721346705E-002   1.3216843704885195E+101  -2.3314512295417471E+100   9.7727772053283526E+206
  0.67500000000000004        5.7329999999999999E-002  0.10784632379682027        1.3995264214198485E+101  -2.4687646073846166E+100   1.0845350183042647E+207
  0.69999999999999996        5.2920000000000002E-002  0.11685126600238695        1.4579546016661643E+101  -2.5718319173391181E+100   1.1827865479734159E+207
  0.72499999999999998        4.8509999999999998E-002  0.12658435289153791        1.5123734633585220E+101  -2.6678267893644311E+100   1.2840977306471155E+207
  0.75000000000000000        4.4100000000000000E-002  0.13555627725637920        1.5580858759719380E+101  -2.7484634852144943E+100   1.3835850939994519E+207
  0.77500000000000002        3.9690000000000003E-002  0.14569136845371597        1.5359088309829756E+101  -2.7093431778539667E+100   1.4935534434584556E+207
  0.80000000000000004        3.5279999999999999E-002  0.15439778297995777        1.5620269105966129E+101  -2.7554154702924292E+100   1.5908449697841164E+207
  0.82499999999999996        3.0870000000000002E-002  0.16459914853111762        1.5851140103130172E+101  -2.7961411141921651E+100   1.6991868707398230E+207
  0.84999999999999998        2.6460000000000001E-002  0.17484804957468503        1.5967844439449055E+101  -2.8167277591188111E+100   1.8137954218927728E+207
  0.87500000000000000        2.2050000000000000E-002  0.18635711363491239        1.6255733736996685E+101  -2.8675114312062123E+100   1.9410890937872313E+207
  0.90000000000000002        1.7639999999999999E-002  0.20140410935818745        1.6621628764866861E+101  -2.9320553141225120E+100   2.0999716267085136E+207
  0.92500000000000004        1.3230000000000000E-002  0.21845361385711515        1.6122490685418816E+101  -2.8440073569078829E+100   2.2913286200098894E+207
  0.94999999999999996        8.8199999999999997E-003  0.24189790266598593        1.6214295099147095E+101  -2.8602016554895516E+100   2.5399416512449311E+207
  0.97499999999999998        4.4099999999999999E-003  0.28562313634225761        1.5546983399305571E+101  -2.7424878716375003E+100   3.0131204702336205E+207
   1.0000000000000000        0.0000000000000000                            NaN                       NaN                       NaN                       NaN
   1.0329999999999999        0.0000000000000000                            NaN                       NaN                       NaN                       NaN
   1.0669999999999999        0.0000000000000000       0.24666579690578741       -1.6917854994487957E+101  -0.0000000000000000        2.6277372928786975E+207
   1.1000000000000001        0.0000000000000000       0.23036742564425997       -1.6701529996731380E+101  -0.0000000000000000        2.4526719265883137E+207
   1.1330000000000000        0.0000000000000000       0.21118313559184973       -1.6067836055788126E+101  -0.0000000000000000        2.2469457412276914E+207
   1.1670000000000000        0.0000000000000000       0.20700595203337738       -7.7383625473159315E+100  -0.0000000000000000        2.2042394507767109E+207
   1.2000000000000000        0.0000000000000000       0.21409808886996598       -8.0518759237305872E+100  -0.0000000000000000        2.2635928605698657E+207
   1.2330000000000001        0.0000000000000000       0.19253827923283670       -1.5495647514389892E+101  -0.0000000000000000        2.0546238474050323E+207
   1.2669999999999999        0.0000000000000000       0.18738024211857451       -7.5007635386068688E+100  -0.0000000000000000        2.0024464955619021E+207
   1.3000000000000000        0.0000000000000000       0.19039790066757559       -7.4556258350133391E+100  -0.0000000000000000        2.0349214916373498E+207
   1.3330000000000000        0.0000000000000000       0.18518471380926158       -7.4092943648975293E+100  -0.0000000000000000        1.9595189438137354E+207
   1.3670000000000000        0.0000000000000000       0.17900131673894973        8.6953926433429150E+098   0.0000000000000000        1.9079841317299367E+207
   1.3999999999999999        0.0000000000000000       0.18699011681169908        8.2204384299334275E+098   0.0000000000000000        1.9931434707475479E+207
   1.4330000000000001        0.0000000000000000       0.17755833874860605       -7.2618903661488678E+100  -0.0000000000000000        1.8975456510372939E+207
   1.4670000000000001        0.0000000000000000       0.17274519997943705        7.1885990822060615E+098   0.0000000000000000        1.8438023701866138E+207
   1.5000000000000000        0.0000000000000000       0.17274519997943705        7.1885990822060615E+098   0.0000000000000000        1.8438023701866138E+207
 -0.50000000000000000        1.1830000000000000E-002   4.0000000000000000        4.0000000000000000        0.0000000000000000        3.7857142857142865     
 -0.46670000000000000        1.1870000000000000E-002  0.31293572514416623       -1.2447765343864832E+099   1.5401270539495694E+102   6.4054497320973593E+204
 -0.43340000000000001        1.1900000000000001E-002  0.36064379762101884       -6.9282684104780714E+098   1.7730343578615591E+102   7.3771644285923972E+204
 -0.40020000000000000        1.1930000000000000E-002  0.36877145387766658       -7.2132344296999188E+098   1.8027485978661118E+102   7.4448080270962726E+204
 -0.36690000000000000        1.1970000000000000E-002  0.37230226885890083       -8.0333069976699072E+098   1.8137233565120363E+102   7.4596872963242261E+204
 -0.33360000000000001        1.2010000000000000E-002  0.37885122039061647       -8.7932653564234699E+098   1.8356746220009901E+102   7.4977696313782028E+204
 -0.30030000000000001        1.2060000000000000E-002  0.38630376056639437       -9.7607725537691226E+098   1.8650387556218136E+102   7.5888812732866609E+204
 -0.26710000000000000        1.2109999999999999E-002  0.39352376723578020       -1.0643569724212270E+099   1.8924660351575913E+102   7.6708186601089162E+204
 -0.23380000000000001        1.2170000000000000E-002  0.40338247661685167       -1.2851322190935154E+099   1.9250451927007155E+102   7.7288758628182152E+204
 -0.20050000000000001        1.2239999999999999E-002  0.41605874937185239       -1.6951098387531594E+099   1.9719955535641035E+102   7.8509673718568928E+204
 -0.16730000000000000        1.2330000000000001E-002  0.43140459177240148       -2.4084326596904876E+099   2.0245728347918475E+102   7.9627833615776482E+204
 -0.13400000000000001        1.2449999999999999E-002  0.44935014058266631       -3.4183408523396576E+099   2.0776822423005154E+102   8.0112461000275659E+204
 -0.10070000000000000        1.2610000000000000E-002  0.47819042814568263       -5.4696634444093073E+099   2.1653579091712154E+102   8.1010296277945397E+204
  -6.7460000000000006E-002   1.2860000000000000E-002  0.53120417827581723       -1.0291169419012587E+100   2.3120646568772799E+102   8.1516742059608782E+204
  -3.4209999999999997E-002   1.3299999999999999E-002  0.67836777433440232       -2.8007310866868743E+100   2.5764247758696441E+102   7.3326183437286629E+204
  -9.5859999999999999E-004   1.4400000000000000E-002  0.74886617434291658       -2.5174319512053655E+101   3.2849529718821172E+102                  Infinity
   2.4119999999999999E-002   1.7809999999999999E-002  0.60622292550198742       -4.4987163630048715E+101   2.7624860262894158E+102   1.1279486103968809E+205
   4.9189999999999998E-002   2.1720000000000000E-002  0.50293306194309939       -3.9718508011458290E+101   2.3469213852996853E+102   9.7554251859054315E+204
   7.4249999999999997E-002   2.5800000000000000E-002  0.45127354232871886       -3.6811987057709637E+101   2.1450123399080210E+102   9.0545319273661206E+204
   9.9309999999999996E-002   2.9960000000000001E-002  0.41340424820672611       -3.4496665856624241E+101   1.9972803939216034E+102   8.5683807768967985E+204
  0.12440000000000000        3.4160000000000003E-002  0.38403425736706237       -3.2573871804877616E+101   1.8774493225106837E+102   8.1348934436620949E+204
  0.14940000000000001        3.8390000000000001E-002  0.35632113847588409       -3.0772732776380795E+101   1.7696342560496341E+102   7.8039789786775211E+204
  0.17449999999999999        4.2630000000000001E-002  0.33415321412137905       -2.9140593154092126E+101   1.6726119947096169E+102   7.4133157770480757E+204
  0.19950000000000001        4.6890000000000001E-002  0.31068923932917969       -2.7560326171205475E+101   1.5805992188392095E+102   7.1469589296548331E+204
  0.22459999999999999        5.1139999999999998E-002  0.29166172751545716       -2.6079810705850042E+101   1.4951991984060833E+102   6.8023713287379262E+204
  0.24959999999999999        5.5399999999999998E-002  0.26997298040649392       -2.4528330425519272E+101   1.4050365839684796E+102   6.5051911220703019E+204
  0.27470000000000000        5.9659999999999998E-002  0.25233735872053525       -2.3116064644740683E+101   1.3243142174254719E+102   6.1825261098311644E+204
  0.29970000000000002        6.3909999999999995E-002  0.23090134553580804       -2.1498623673498065E+101   1.2324191765034269E+102   5.8729812148677547E+204
  0.32479999999999998        6.8150000000000002E-002  0.21250099745820397       -1.9969088544174212E+101   1.1453686124986851E+102   5.5125505396966154E+204
  0.34980000000000000        7.2380000000000000E-002  0.19045060065779912       -1.8234058672875407E+101   1.0474450702322890E+102   5.1760266189994191E+204
  0.37490000000000001        7.6579999999999995E-002  0.16970972963819780       -1.6445908935432117E+101   9.4702068307069998E+101   4.7615525485654831E+204
  0.39989999999999998        8.0750000000000002E-002  0.14459918016550785       -1.4349404693005940E+101   8.2943393906816456E+101   4.3330076471971873E+204
  0.42499999999999999        8.4860000000000005E-002  0.11908886842939584       -1.2049193347073168E+101   7.0092536142293631E+101   3.7959264548252250E+204
  0.45000000000000001        8.8880000000000001E-002   8.7938873905883508E-002  -9.2770197775278031E+100   5.4714230494941266E+101   3.2561665888758580E+204
  0.47510000000000002        9.2649999999999996E-002   5.4886346403032228E-002  -6.0743825180967791E+100   3.7723799018825091E+101   2.8473351518495921E+204
  0.50009999999999999        9.5600000000000004E-002   2.0118222828129806E-002   1.0161536280924701E+098   1.2369327759065398E+101   5.6167388182940393E+203
  0.52520000000000000        9.2619999999999994E-002   5.2284251662914706E-002   4.7875460956607788E+100   3.0165911400818180E+101   1.4394903411784889E+204
  0.55020000000000002        8.8830000000000006E-002   9.2913730118174553E-002   8.6516697148722678E+100   5.1476412552697603E+101   2.4004345261762052E+204
  0.57530000000000003        8.4820000000000007E-002  0.12506932771332149        1.1546890998109403E+101   6.7599591120368407E+101   3.0962443585303192E+204
  0.60040000000000004        8.0710000000000004E-002  0.15010921646933875        1.3811285327976723E+101   8.0118892250955198E+101   3.6533102302708668E+204
  0.62539999999999996        7.6539999999999997E-002  0.17428540525345923        1.5830281397694037E+101   9.1374322652343783E+101   4.1021170040086122E+204
  0.65049999999999997        7.2330000000000005E-002  0.19434829773721107        1.7543230633033176E+101   1.0097226356621552E+102   4.5122220142318734E+204
  0.67549999999999999        6.8099999999999994E-002  0.21575443543915393        1.9188733010599319E+101   1.1030046057483460E+102   4.8447161081847786E+204
  0.70060000000000000        6.3860000000000000E-002  0.23368279898329314        2.0627681622970832E+101   1.1848276544392332E+102   5.1716218134631980E+204
  0.72560000000000002        5.9610000000000003E-002  0.25394611053095356        2.2115823552592243E+101   1.2693307751105114E+102   5.4564387024316050E+204
  0.75070000000000003        5.5350000000000003E-002  0.27166305833291760        2.3511593863432951E+101   1.3491555409716926E+102   5.7759146622151156E+204
  0.77569999999999995        5.1090000000000003E-002  0.29416946856118725        2.5048773078230647E+101   1.4385842735183924E+102   6.0462230135541835E+204
  0.80079999999999996        4.6840000000000000E-002  0.31148203449864575        2.6324495710025743E+101   1.5122550130828275E+102   6.3222791241084831E+204
  0.82579999999999998        4.2580000000000000E-002  0.33425443786669251        2.7772488192658322E+101   1.5966220999976190E+102   6.5404347060703751E+204
  0.85089999999999999        3.8339999999999999E-002  0.35739098843720896        2.9170696749276854E+101   1.6816540068369829E+102   6.7586242861660595E+204
  0.87600000000000000        3.4110000000000001E-002  0.38172084285026314        3.0761528324760373E+101   1.7759659471720837E+102   7.0526651120116350E+204
  0.90100000000000002        2.9909999999999999E-002  0.41510487081970482        3.2679387675035576E+101   1.8931907503682127E+102   7.3405575163383157E+204
  0.92610000000000003        2.5739999999999999E-002  0.45611628155863143        3.4796639947496440E+101   2.0304858860463974E+102   7.6226425171594308E+204
  0.95109999999999995        2.1669999999999998E-002  0.51938440151048104        3.7300930699108695E+101   2.2082657938751700E+102   7.7599883358504068E+204
  0.97619999999999996        1.7760000000000001E-002  0.67535682257099350        4.1735635996905061E+101   2.5736652248298191E+102   7.6134272936192963E+204
   1.0009999999999999        1.4370000000000001E-002  0.72949303365748264        2.4877168359667804E+101   3.2566398974967195E+102                  Infinity
   1.0340000000000000        1.3290000000000000E-002  0.54786914556124866        2.5347780628168080E+100   2.5578647780192771E+102                  Infinity
   1.0680000000000001        1.2860000000000000E-002  0.48573443893819818        9.5582588565868454E+099   2.2832343402921417E+102   9.2370835083983810E+204
   1.1010000000000000        1.2610000000000000E-002  0.45585752285761189        5.2046305140336367E+099   2.1694830451067703E+102   8.8422497100865876E+204
   1.1339999999999999        1.2449999999999999E-002  0.41517257475195796        3.0693079743569533E+099   2.0243094486659430E+102   8.4956245398319286E+204
   1.1670000000000000        1.2330000000000001E-002  0.41564464424658487        2.3031891372927267E+099   1.9930180227448331E+102   8.1440317262332897E+204
   1.2010000000000001        1.2239999999999999E-002  0.43456575079429799        1.6610890547226962E+099   2.0481055770553021E+102   8.1528386456523264E+204
   1.2340000000000000        1.2170000000000000E-002  0.37992024225577398        9.5332940477545608E+098   1.8906686088946949E+102   8.0669287008777512E+204
   1.2669999999999999        1.2109999999999999E-002  0.37409429253855281        8.6778622431482215E+098   1.8531479432295911E+102   7.8587211826549057E+204
   1.3000000000000000        1.2060000000000000E-002  0.38695262754584253        8.5836333765253867E+098   1.8662108518547584E+102   7.5934471864727607E+204
   1.3340000000000001        1.2010000000000000E-002  0.37305619179793276        7.4532407320078028E+098   1.8158946092545607E+102   7.5101856011616940E+204
   1.3670000000000000        1.1970000000000000E-002  0.35832470782382364        8.4863706797072262E+098   1.7849598729236719E+102   7.6156708852876022E+204
   1.3999999999999999        1.1930000000000000E-002  0.37803218499018182        8.0761021743809068E+098   1.8575216420749174E+102   7.7542009028877763E+204
   1.4330000000000001        1.1900000000000001E-002  0.35795241102372266        5.1294544935934867E+098   1.7724887227741085E+102   7.4527441098327034E+204
   1.4670000000000001        1.1870000000000000E-002  0.34887115047583755        7.2619658449741209E+098   1.7270939224093631E+102   7.2699694523330682E+204
   1.5000000000000000        1.1830000000000000E-002  0.34887115047583755        7.2619658449741209E+098   1.7270939224093631E+102   7.2699694523330682E+204
 -0.50000000000000000        2.3910000000000001E-002   4.0000000000000000        4.0000000000000000        0.0000000000000000        3.7857142857142865     
 -0.46679999999999999        2.3970000000000002E-002   8.4866476893192484       -2.9453266978231488E+097   2.2766516852411193E+100   4.1425946401751047E+202
 -0.43359999999999999        2.4039999999999999E-002   8.7135089215596260       -1.5427903741396954E+097   2.6033352751958680E+100   4.7379213117936735E+202
 -0.40029999999999999        2.4109999999999999E-002   8.7042393974358863       -1.5040518265878439E+097   2.6212669918840508E+100   4.7371705301539663E+202
 -0.36709999999999998        2.4180000000000000E-002   8.7044251588257300       -1.6646461427591609E+097   2.6273301203117239E+100   4.7304041711129876E+202
 -0.33389999999999997        2.4260000000000000E-002   8.6927739739357275       -1.8424266287634650E+097   2.6344069661709658E+100   4.7121538886628748E+202
 -0.30070000000000002        2.4350000000000000E-002   8.6829164339378782       -2.0736573757454884E+097   2.6530416937700008E+100   4.7274663556660666E+202
 -0.26750000000000002        2.4459999999999999E-002   8.6733235403891129       -2.2822238284509918E+097   2.6695258592744200E+100   4.7385912883768598E+202
 -0.23430000000000001        2.4580000000000001E-002   8.6634567680037904       -2.6825025639974346E+097   2.6833377436560919E+100   4.7205642063558273E+202
 -0.20110000000000000        2.4719999999999999E-002   8.6391535536938182       -3.4355210969781033E+097   2.7039113536907154E+100   4.7179819503520489E+202
 -0.16780000000000000        2.4910000000000002E-002   8.6185456087162038       -4.6377688849717064E+097   2.7271699941511243E+100   4.7037046960150990E+202
 -0.13460000000000000        2.5139999999999999E-002   8.5965637151575258       -6.2840962771264833E+097   2.7382130816046828E+100   4.6367497153874771E+202
 -0.10150000000000001        2.5460000000000000E-002   8.5421678976036404       -9.3955954558243659E+097   2.7464221142235099E+100   4.5218261404775759E+202
  -6.8269999999999997E-002   2.5930000000000002E-002   8.4507350940894295       -1.5821952013903147E+098   2.7438381618160030E+100   4.2757786421626008E+202
  -3.5090000000000003E-002   2.6730000000000000E-002   8.1496159800180461       -3.3527548040363795E+098   2.5274856018885973E+100   3.2281475604265410E+202
  -1.9330000000000000E-003   2.8379999999999999E-002   8.7348331297952360       -2.9589188487844041E+099   3.8442368628848337E+100   6.4756719452579725E+202
   2.3230000000000001E-002   3.1280000000000002E-002   8.8723157144693552       -5.5321028941232270E+099   3.4906020094107123E+100   6.1893361753384337E+202
   4.8379999999999999E-002   3.4790000000000001E-002   8.8298652277133254       -5.1947685088820039E+099   3.1200657928334534E+100   5.6424113714975035E+202
   7.3499999999999996E-002   3.8570000000000000E-002   8.8667308433075824       -5.0386808914512081E+099   2.9707456198157116E+100   5.4604633460704290E+202
   9.8610000000000003E-002   4.2490000000000000E-002   8.9119645587261545       -4.9095332772784801E+099   2.8699495111397983E+100   5.3616563017771469E+202
  0.12370000000000000        4.6489999999999997E-002   8.9369171644592615       -4.7691007356866422E+099   2.7716287326750429E+100   5.2316651786039776E+202
  0.14879999999999999        5.0540000000000002E-002   8.9805316310795877       -4.6564162936699498E+099   2.6984699151362586E+100   5.1813753883008966E+202
  0.17390000000000000        5.4609999999999999E-002   8.9992998685345942       -4.5059576513015893E+099   2.6050671991901655E+100   5.0303409531943869E+202
  0.19900000000000001        5.8709999999999998E-002   9.0468130174212664       -4.4036670084731162E+099   2.5434461276381422E+100   5.0054866072809983E+202
  0.22409999999999999        6.2810000000000005E-002   9.0618317080617015       -4.2506087008369849E+099   2.4543829013068784E+100   4.8612192879530314E+202
  0.24920000000000000        6.6909999999999997E-002   9.1031138185549079       -4.1236275608837920E+099   2.3789537282079952E+100   4.7918019883593825E+202
  0.27429999999999999        7.1020000000000000E-002   9.1259304850230727       -3.9733088510107500E+099   2.2931357793126025E+100   4.6569888959018559E+202
  0.29940000000000000        7.5100000000000000E-002   9.1709052596938569       -3.8231212567257601E+099   2.2090177765304764E+100   4.5745109142033921E+202
  0.32450000000000001        7.9170000000000004E-002   9.1937887947438561       -3.6419003376561175E+099   2.1064783611770754E+100   4.4048564676963292E+202
  0.34960000000000002        8.3210000000000006E-002   9.2500131987574470       -3.4651185918364491E+099   2.0093074987823651E+100   4.3065447082535496E+202
  0.37469999999999998        8.7200000000000000E-002   9.2795330798094771       -3.2332763787720711E+099   1.8820655581044478E+100   4.1004538578338412E+202
  0.39979999999999999        9.1120000000000007E-002   9.3449953863743378       -2.9794587237267589E+099   1.7448923438763097E+100   3.9379019932645190E+202
  0.42490000000000000        9.4930000000000000E-002   9.3950529214549192       -2.6460388039442320E+099   1.5655643406753174E+100   3.6513731196286578E+202
  0.45000000000000001        9.8530000000000006E-002   9.5257708115613724       -2.2589017092803843E+099   1.3677170852571914E+100   3.4656301481187203E+202
  0.47520000000000001       0.10170000000000000        9.8249723047198501       -1.7630626023679913E+099   1.1696721677262408E+100   3.5912766327697665E+202
  0.50029999999999997       0.10370000000000000        8.3731012374349767        8.1901350575582731E+096   3.1575825686326795E+099   6.4107874056665982E+201
  0.52539999999999998       0.10170000000000000        8.4867876598976579        1.0669314127151784E+099   6.9815618103107515E+099   1.4672248593992544E+202
  0.55049999999999999        9.8460000000000006E-002   8.6980423214511227        1.7910503296505872E+099   1.0872034065367536E+100   2.2284985271008502E+202
  0.57560000000000000        9.4850000000000004E-002   8.7379851446617796        2.2597090355063448E+099   1.3418073738767878E+100   2.6999468362057446E+202
  0.60070000000000001        9.1039999999999996E-002   8.7448694739788486        2.5999295560957973E+099   1.5250610703064104E+100   3.0506541651799167E+202
  0.62580000000000002        8.7110000000000007E-002   8.7403534211101128        2.8675842894515303E+099   1.6706946222486401E+100   3.2897099477436367E+202
  0.65090000000000003        8.3119999999999999E-002   8.7355265188886904        3.0928550389551032E+099   1.7948596448708572E+100   3.5152742174141240E+202
  0.67600000000000005        7.9079999999999998E-002   8.7108136740971460        3.2695918552022015E+099   1.8934753594781598E+100   3.6465622375613306E+202
  0.70109999999999995        7.5009999999999993E-002   8.6975893301688370        3.4328330358081522E+099   1.9855809220155176E+100   3.7989035425451442E+202
  0.72619999999999996        7.0919999999999997E-002   8.6703134256947081        3.5716184687397510E+099   2.0635190181854227E+100   3.8895904712776402E+202
  0.75129999999999997        6.6820000000000004E-002   8.6547327104849305        3.7168747799864430E+099   2.1467657066440380E+100   4.0278355537942661E+202
  0.77649999999999997        6.2710000000000002E-002   8.6210540426382423        3.8371509523347607E+099   2.2179539767686965E+100   4.0885863272538852E+202
  0.80159999999999998        5.8610000000000002E-002   8.6118086685649846        3.9606015363863332E+099   2.2897005894813883E+100   4.1975589059784760E+202