VARIABLES = "X" "Y" "Ust1" "Ust2" "Ust3" "Ust4"
ZONE I=  71    J=   48
 -0.50000000000000000        0.0000000000000000        3.9999999999999991        3.9999999999999991       -0.0000000000000000        3.7857142857142860     
 -0.46670000000000000        0.0000000000000000        4.0007932103770649        4.0011402884425058        0.0000000000000000        3.7865641721412526     
 -0.43330000000000002        0.0000000000000000        3.9995233632886853        3.9986117815486231        0.0000000000000000        3.7850027608682142     
 -0.40000000000000002        0.0000000000000000        4.0008876636037733        4.0013652299415048        0.0000000000000000        3.7866908515793165     
 -0.36670000000000003        0.0000000000000000        4.0007439253957058        4.0012026509945446        0.0000000000000000        3.7865494299345355     
 -0.33329999999999999        0.0000000000000000        4.0017172691342457        4.0017324245878285        0.0000000000000000        3.7873438884255646     
 -0.29999999999999999        0.0000000000000000        4.0016505095806725        4.0008942597295905        0.0000000000000000        3.7870603241698984     
 -0.26669999999999999        0.0000000000000000        4.0030573909839902        4.0036018654404124        0.0000000000000000        3.7887634626054707     
 -0.23330000000000001        0.0000000000000000        4.0022823322115677        4.0023748478741412        0.0000000000000000        3.7879007834807652     
 -0.20000000000000001        0.0000000000000000        4.0031618741769437        4.0030029162294580        0.0000000000000000        3.7886613581198851     
 -0.16669999999999999        0.0000000000000000        4.0110069851390024        4.0156759665750332        0.0000000000000000        3.7974663820442029     
 -0.13330000000000000        0.0000000000000000        4.0136805262681889        4.0191444906852727        0.0000000000000000        3.8002241219496828     
 -0.10000000000000001        0.0000000000000000        4.0134010916012448        4.0173153796822465        0.0000000000000000        3.7995163750918528     
  -6.6669999999999993E-002   0.0000000000000000        4.0301434841377626        4.0427700917209286        0.0000000000000000        3.8178561938952953     
  -3.3329999999999999E-002   0.0000000000000000        4.0735992469584241        4.1099501919323584        0.0000000000000000        3.8658030400471173     
   0.0000000000000000        0.0000000000000000        4.0683996363558599        3.9639777246136112       0.29969384134315147        3.8241515018320342     
   2.5000000000000001E-002   4.4099999999999999E-003   4.6334215887002115        4.2192984885279525       0.74428425337633064        4.2892488991351483     
   5.0000000000000003E-002   8.8199999999999997E-003   5.0846146156597607        4.4957113442792984       0.79304348113086842        4.6713804034147071     
   7.4999999999999997E-002   1.3230000000000000E-002   5.4052790447075596        4.7257325817766596       0.83361922742540273        4.9521251519978842     
  0.10000000000000001        1.7639999999999999E-002   5.6065379073172403        4.8886270449269640       0.86235381072511641        5.1331514438229471     
  0.12500000000000000        2.2050000000000000E-002   5.7259461405441465        4.9989860662319314       0.88182114208331308        5.2440816412731737     
  0.14999999999999999        2.6460000000000001E-002   5.7793059226050634        5.0431805357628869       0.88961704650857365        5.2923361781831666     
  0.17499999999999999        3.0870000000000002E-002   5.8186418233765131        5.0865376892611707       0.89726524838567001        5.3306815022326521     
  0.20000000000000001        3.5279999999999999E-002   5.8269546751944530        5.0939967438098979       0.89858102560806574        5.3383467069013140     
  0.22500000000000001        3.9690000000000003E-002   5.8386447056278143        5.1078364295391667       0.90102234617070942        5.3499891737434258     
  0.25000000000000000        4.4100000000000000E-002   5.8372463969595927        5.1065641902936214       0.90079792316779395        5.3486952774919416     
  0.27500000000000002        4.8509999999999998E-002   5.8405142287314140        5.1126361919915775       0.90186902426731463        5.3525180027856472     
  0.29999999999999999        5.2920000000000002E-002   5.8361293057073009        5.1069191701911878       0.90086054162172591        5.3480150808888443     
  0.32500000000000001        5.7329999999999999E-002   5.8392024617292089        5.1134115530637718       0.90200579796044966        5.3518120207529432     
  0.34999999999999998        6.1740000000000003E-002   5.8299074855378450        5.1022356541399230       0.90003436939028281        5.3425098041721490     
  0.37500000000000000        6.6150000000000000E-002   5.8306521558982150        5.1054271648095453       0.90059735187240253        5.3438472223059632     
  0.40000000000000002        7.0559999999999998E-002   5.8172122263255535        5.0904642609718005       0.89795789563542527        5.3307055624294195     
  0.42499999999999999        7.4969999999999995E-002   5.8106742340726329        5.0867430352085190       0.89730147141078387        5.3252300505944286     
  0.45000000000000001        7.9380000000000006E-002   5.7771941740121653        5.0408375469757614       0.88920374328652529        5.2902737774211097     
  0.47499999999999998        8.3790000000000003E-002   5.7034765364655140        4.9247957497066652       0.86873397024825538        5.2095434736523689     
  0.50000000000000000        8.8200000000000001E-002   5.3645732808548141        5.0728612129249457        0.0000000000000000        4.9961052031323234     
  0.52500000000000002        8.3790000000000003E-002   3.9536091432877720        3.9380368829822157      -0.69466970615806167        3.7548049245957431     
  0.55000000000000004        7.9380000000000006E-002   3.3177506695902297        3.3760365321750174      -0.59553284427567443        3.1720844865184032     
  0.57499999999999996        7.4969999999999995E-002   2.9670618183713842        3.0394262632942182      -0.53615479284510126        2.8428803910974301     
  0.59999999999999998        7.0559999999999998E-002   2.7675034352097496        2.8421349201053445      -0.50135259990658199        2.6538299072243432     
  0.62500000000000000        6.6150000000000000E-002   2.6602087148601008        2.7409783194419064      -0.48350857554955151        2.5536792584232266     
  0.65000000000000002        6.1740000000000003E-002   2.5839826797326308        2.6619759803215786      -0.46957256292872607        2.4803655316971835     
  0.67500000000000004        5.7329999999999999E-002   2.5472144156609851        2.6288066766301590      -0.46372149775756066        2.4465020409704508     
  0.69999999999999996        5.2920000000000002E-002   2.5155763545101602        2.5943354738076558      -0.45764077757967120        2.4155618185901062     
  0.72499999999999998        4.8509999999999998E-002   2.5013640007379041        2.5825461277007062      -0.45556113692640426        2.4027863783132721     
  0.75000000000000000        4.4100000000000000E-002   2.4887184138224296        2.5688071529162078      -0.45313758177441837        2.3904314383346366     
  0.77500000000000002        3.9690000000000003E-002   2.4917154428664214        2.5784181138892301      -0.45483295529005985        2.3952944892465275     
  0.80000000000000004        3.5279999999999999E-002   2.4827324601114031        2.5673608927054912      -0.45288246147324929        2.3861222480134567     
  0.82499999999999996        3.0870000000000002E-002   2.4849460219523700        2.5728049442000591      -0.45384279215689094        2.3892114362322108     
  0.84999999999999998        2.6460000000000001E-002   2.4805404174517034        2.5670603453379126      -0.45282944491760752        2.3846147350538174     
  0.87500000000000000        2.2050000000000000E-002   2.4763711350385988        2.5617705494260306      -0.45189632491875142        2.3803094544171319     
  0.90000000000000002        1.7639999999999999E-002   2.4797120428113661        2.5679872483618733      -0.45299295061103401        2.3843625427535287     
  0.92500000000000004        1.3230000000000000E-002   2.4849943632291134        2.5772181782600145      -0.45462128664506718        2.3905899063635205     
  0.94999999999999996        8.8199999999999997E-003   2.4952603673091844        2.5939322154645774      -0.45756964280795204        2.4023217924481015     
  0.97499999999999998        4.4099999999999999E-003   2.5191618017933837        2.6294600110306448      -0.46383674594580526        2.4286108338890999     
   1.0000000000000000        0.0000000000000000        2.5566707604660870        2.6169534436804955      -0.19897870149363786        2.4393452148011727     
   1.0329999999999999        0.0000000000000000        2.9533379239130948        2.8809050172069157        0.0000000000000000        2.7746820579044051     
   1.0669999999999999        0.0000000000000000        3.2932622243362242        3.1585686068299195        0.0000000000000000        3.0791405622879253     
   1.1000000000000001        0.0000000000000000        3.4972952092847569        3.3316966849542817        0.0000000000000000        3.2637464108880554     
   1.1330000000000000        0.0000000000000000        3.6143242043625112        3.4387179178159326        0.0000000000000000        3.3717453312689143     
   1.1670000000000000        0.0000000000000000        3.6832180515943183        3.5162360702964990        0.0000000000000000        3.4392751283540282     
   1.2000000000000000        0.0000000000000000        3.7398747143326827        3.5861274167983286        0.0000000000000000        3.4964994240128302     
   1.2330000000000001        0.0000000000000000        3.7144171131618671        3.5317991576368852        0.0000000000000000        3.4645365409801925     
   1.2669999999999999        0.0000000000000000        3.7359107314019679        3.5613127855578668        0.0000000000000000        3.4870532163152390     
   1.3000000000000000        0.0000000000000000        3.7372231478542379        3.5659120590484896        0.0000000000000000        3.4891905552692637     
   1.3330000000000000        0.0000000000000000        3.7775496287395569        3.6219968998006964        0.0000000000000000        3.5316523096613048     
   1.3670000000000000        0.0000000000000000        3.7459988318952697        3.5752966790674696        0.0000000000000000        3.4976595264029160     
   1.3999999999999999        0.0000000000000000        3.7405762231340640        3.5701281008805452        0.0000000000000000        3.4925983058268044     
   1.4330000000000001        0.0000000000000000        3.7393006969588907        3.5719415845099070        0.0000000000000000        3.4922342253644905     
   1.4670000000000001        0.0000000000000000        3.7443903483172023        3.5711250068033666        0.0000000000000000        3.4954390848973356     
   1.5000000000000000        0.0000000000000000        3.7494799996755139        3.5703084290968263        0.0000000000000000        3.4986439444301807     
 -0.50000000000000000        1.1830000000000000E-002   4.0000000000000000        4.0000000000000000        0.0000000000000000        3.7857142857142865     
 -0.46670000000000000        1.1870000000000000E-002   4.0004195940943994        4.0005331084620872        7.3196996538888175E-004   3.7861438538232539     
 -0.43340000000000001        1.1900000000000001E-002   4.0009703671320835        4.0009630810493100       -1.2187477805236872E-003   3.7866306401920373     
 -0.40020000000000000        1.1930000000000000E-002   4.0003719461389977        4.0005272090172745        2.1040572187252862E-004   3.7861106694314444     
 -0.36690000000000000        1.1970000000000000E-002   4.0005430139051672        4.0008760897768560        8.6019213661981102E-004   3.7863234045076797     
 -0.33360000000000001        1.2010000000000000E-002   4.0020016664193276        4.0021945636779046       -1.2260435339112748E-004   3.7876638353712822     
 -0.30030000000000001        1.2060000000000000E-002   4.0033360140182959        4.0036332647989141        2.2989268998110136E-005   3.7889565166622243     
 -0.26710000000000000        1.2109999999999999E-002   4.0031290534588653        4.0037182799015572        4.9596984271130392E-004   3.7888440828897045     
 -0.23380000000000001        1.2170000000000000E-002   4.0036039927597953        4.0045224399122361       -1.2886268222147797E-004   3.7893876515975204     
 -0.20050000000000001        1.2239999999999999E-002   4.0057544199644104        4.0072155253924198       -3.3997762457217391E-004   3.7915779721307858     
 -0.16730000000000000        1.2330000000000001E-002   4.0068812826589353        4.0089736786032608        1.2422348353077039E-003   3.7928249667541274     
 -0.13400000000000001        1.2449999999999999E-002   4.0101318328860343        4.0133800488397595        1.3244342474778438E-003   3.7962318418947594     
 -0.10070000000000000        1.2610000000000000E-002   4.0154672236908979        4.0206709792484432        1.7968856693312285E-003   3.8018407736927120     
  -6.7460000000000006E-002   1.2860000000000000E-002   4.0255756921216967        4.0353507503069679        6.0798030423350104E-003   3.8127174278772213     
  -3.4209999999999997E-002   1.3299999999999999E-002   4.0489045215686534        4.0698663174163734        2.2564201881794081E-002   3.8380214739836260     
  -9.5859999999999999E-004   1.4400000000000000E-002   4.1157861771232724        4.0507865115827073       0.13020187810591496        3.8774613601953742     
   2.4119999999999999E-002   1.7809999999999999E-002   4.7526849315233397        4.4673474755694675       0.38351509714763315        4.4234201598111680     
   4.9189999999999998E-002   2.1720000000000000E-002   5.2100203957102735        4.7407638609667071       0.59124686424260064        4.8124619059715332     
   7.4249999999999997E-002   2.5800000000000000E-002   5.4961501947566438        4.8997304560771404       0.72868501121736384        5.0543551958031046     
   9.9309999999999996E-002   2.9960000000000001E-002   5.6563813168369927        4.9841533797151056       0.80868381911297116        5.1892252795326685     
  0.12440000000000000        3.4160000000000003E-002   5.7387721304724035        5.0264621390005120       0.85175076080358170        5.2585108799424631     
  0.14940000000000001        3.8390000000000001E-002   5.7801542073335552        5.0474505891848551       0.87362034261220622        5.2932904985027216     
  0.17449999999999999        4.2630000000000001E-002   5.8018659470169105        5.0595097455887474       0.88509898818747279        5.3118086413280983     
  0.19950000000000001        4.6890000000000001E-002   5.8081707723719411        5.0628621928109840       0.88991560721640051        5.3172148162259880     
  0.22459999999999999        5.1139999999999998E-002   5.8139032174372991        5.0664150766275018       0.89197788780794107        5.3221549995290953     
  0.24959999999999999        5.5399999999999998E-002   5.8139397541487829        5.0672753839577371       0.89381962915319291        5.3224753043297817     
  0.27470000000000000        5.9659999999999998E-002   5.8130258058265412        5.0663137327639785       0.89358851430031239        5.3215935270176651     
  0.29970000000000002        6.3909999999999995E-002   5.8119315056071832        5.0660987594249978       0.89380370733666492        5.3207925557762126     
  0.32479999999999998        6.8150000000000002E-002   5.8105113949064808        5.0650519637200704       0.89346082719688991        5.3195345705773738     
  0.34980000000000000        7.2380000000000000E-002   5.8056688498259783        5.0613954115552389       0.89270418973265642        5.3152413389962989     
  0.37490000000000001        7.6579999999999995E-002   5.8025779888699320        5.0582210715115608       0.89158442058572607        5.3122637843991436     
  0.39989999999999998        8.0750000000000002E-002   5.7932882711588736        5.0502917634564275       0.88993030496888159        5.3037911128669037     
  0.42499999999999999        8.4860000000000005E-002   5.7813566490613235        5.0376555552683397       0.88665257036117762        5.2922477674567059     
  0.45000000000000001        8.8880000000000001E-002   5.7590294372500379        5.0115148678331884       0.87617873792551637        5.2698384485637160     
  0.47510000000000002        9.2649999999999996E-002   5.7130464692222453        4.9472250755555764       0.83561534157019646        5.2203096480036901     
  0.50009999999999999        9.5600000000000004E-002   5.2667941143585626        4.8943744909898896       0.38892191800185416        4.8861036408240404     
  0.52520000000000000        9.2619999999999994E-002   3.7660331771009958        3.6913830072500220      -0.12761842599159853        3.5437819626356197     
  0.55020000000000002        8.8830000000000006E-002   3.1860323394460082        3.2018147557169487      -0.29975560254778899        3.0239013651061541     
  0.57530000000000003        8.4820000000000007E-002   2.8972425648306364        2.9507027569674635      -0.37368333147426619        2.7643337308640885     
  0.60040000000000004        8.0710000000000004E-002   2.7396585344106610        2.8115151186270397      -0.41112475864017028        2.6225043938253689     
  0.62539999999999996        7.6539999999999997E-002   2.6487890408617587        2.7311211392203325      -0.43174796863645204        2.5408321251750920     
  0.65049999999999997        7.2330000000000005E-002   2.5938653823200131        2.6824432854727731      -0.44354798714685506        2.4914835721079891     
  0.67549999999999999        6.8099999999999994E-002   2.5611346113639977        2.6537145840124761      -0.45013082381258829        2.4621622611363407     
  0.70060000000000000        6.3860000000000000E-002   2.5411554282386217        2.6364219907181399      -0.45399292346399461        2.4443382765346251     
  0.72560000000000002        5.9610000000000003E-002   2.5276680249412578        2.6250743109777894      -0.45604983754272249        2.4323784055420439     
  0.75070000000000003        5.5350000000000003E-002   2.5204198607610317        2.6192591189526917      -0.45829441045256342        2.4260955661405621     
  0.77569999999999995        5.1090000000000003E-002   2.5146102104142924        2.6148792443180273      -0.45830385907726473        2.4210511027378803     
  0.80079999999999996        4.6840000000000000E-002   2.5113803949630888        2.6126875790986439      -0.45892220604236500        2.4183511747215980     
  0.82579999999999998        4.2580000000000000E-002   2.5099540494631780        2.6123149784955966      -0.45937760032037250        2.4173454671818613     
  0.85089999999999999        3.8339999999999999E-002   2.5099597094856585        2.6135368124485612      -0.45935675075154142        2.4177114385920007     
  0.87600000000000000        3.4110000000000001E-002   2.5099952634435256        2.6147872380344803      -0.45993348968971548        2.4181365988726418     
  0.90100000000000002        2.9909999999999999E-002   2.5114684306095780        2.6180026348389682      -0.46081825708897828        2.4200884790264645     
  0.92610000000000003        2.5739999999999999E-002   2.5138660542439202        2.6228968895817273      -0.46045781509612116        2.4230705587550969     
  0.95109999999999995        2.1669999999999998E-002   2.5192022560215812        2.6323466845575365      -0.45921794612154682        2.4292564172494342     
  0.97619999999999996        1.7760000000000001E-002   2.5351966418861154        2.6567064134407943      -0.45602606433914361        2.4466500289932984     
   1.0009999999999999        1.4370000000000001E-002   2.6250340367097662        2.7089748106421365      -0.37074200705310095        2.5162539005742994     
   1.0340000000000000        1.3290000000000000E-002   3.0839853100617067        3.0849585323822137      -0.23739018051743116        2.9216603673173194     
   1.0680000000000001        1.2860000000000000E-002   3.4011063665414412        3.3329545681157549      -0.14123366689857855        3.2004652222613927     
   1.1010000000000000        1.2610000000000000E-002   3.5805714619924633        3.4684005874343984       -7.4908145412599367E-002   3.3574321951730797     
   1.1339999999999999        1.2449999999999999E-002   3.6731983311624261        3.5359493777522770       -3.2169167980179811E-002   3.4379787239042607     
   1.1670000000000000        1.2330000000000001E-002   3.7127949473602966        3.5650934338427627       -1.9710147722724142E-002   3.4725491360778120     
   1.2010000000000001        1.2239999999999999E-002   3.7385914133750604        3.5839784971180721       -1.4148619330317667E-002   3.4950557104364508     
   1.2340000000000000        1.2170000000000000E-002   3.7513781394424988        3.5930045890821867        4.1957319288790391E-003   3.5061176955028865     
   1.2669999999999999        1.2109999999999999E-002   3.7579122387150896        3.5977287225179682       -4.3076923845878565E-003   3.5118049120047896     
   1.3000000000000000        1.2060000000000000E-002   3.7558756577432053        3.5967790415531935       -8.8496445208107409E-004   3.5101746288516953     
   1.3340000000000001        1.2010000000000000E-002   3.7670346724263326        3.6046099162594634        3.0118691714653093E-003   3.5198229838354873     
   1.3670000000000000        1.1970000000000000E-002   3.7616687902204138        3.6012268105561325       -3.1990493807859946E-003   3.5152882294931094     
   1.3999999999999999        1.1930000000000000E-002   3.7578611207068833        3.5987264705220201       -5.1833707458578491E-003   3.5120438156321470     
   1.4330000000000001        1.1900000000000001E-002   3.7538338783026037        3.5959729826078739        9.0747767386557959E-003   3.5085840545531726     
   1.4670000000000001        1.1870000000000000E-002   3.7635071174904091        3.6027638571912530       -3.8072653708613913E-003   3.5169454508896449     
   1.5000000000000000        1.1830000000000000E-002   3.7731803566782145        3.6095547317746322       -1.6689307480378578E-002   3.5253068472261173     
 -0.50000000000000000        2.3910000000000001E-002   4.0000000000000000        4.0000000000000000        0.0000000000000000        3.7857142857142865     
 -0.46679999999999999        2.3970000000000002E-002   4.0021372852672075        4.0020208301901503        6.1588686966695190E-004   3.7877038147011848     
 -0.43359999999999999        2.4039999999999999E-002   4.0001369163304705        4.0007239076342920       -6.2833346047209255E-004   3.7860116054473036     
 -0.40029999999999999        2.4109999999999999E-002   4.0000819048305800        4.0004929479730622        1.7959479265083244E-004   3.7859092508698891     
 -0.36709999999999998        2.4180000000000000E-002   4.0016894646784547        4.0019166591850617        5.9524826139610359E-004   3.7873781705642280     
 -0.33389999999999997        2.4260000000000000E-002   4.0019630152472230        4.0023394040707565       -4.0838205629843786E-004   3.7876796901047451     
 -0.30070000000000002        2.4350000000000000E-002   4.0031022489400581        4.0036116120303040        5.5929867251281490E-005   3.7887958844288918     
 -0.26750000000000002        2.4459999999999999E-002   4.0034152738416928        4.0040661042652239        5.8999588048463199E-004   3.7891325775432216     
 -0.23430000000000001        2.4580000000000001E-002   4.0041447195981767        4.0052545894457507        6.8566827488503537E-004   3.7899541331543807     
 -0.20110000000000000        2.4719999999999999E-002   4.0036268618326778        4.0052922018931989        6.0394933381386262E-004   3.7896227747971314     
 -0.16780000000000000        2.4910000000000002E-002   4.0077148499085080        4.0096212268926950        1.3735924621619954E-003   3.7935607160303739     
 -0.13460000000000000        2.5139999999999999E-002   4.0105681073514026        4.0134755617317301        2.3925067604444136E-003   3.7965474507098600     
 -0.10150000000000001        2.5460000000000000E-002   4.0134242509741664        4.0181451552872174        3.4788028960415266E-003   3.7997694342607611     
  -6.8269999999999997E-002   2.5930000000000002E-002   4.0203053070370771        4.0273319344053773        8.8583733493269572E-003   3.8069439590713570     
  -3.5090000000000003E-002   2.6730000000000000E-002   4.0302823361006386        4.0375709473688337        2.4822282065164698E-002   3.8164805370593733     
  -1.9330000000000000E-003   2.8379999999999999E-002   4.0459940390086020        4.0149409361703281        7.1186263962397273E-002   3.8205850150839624     
   2.3230000000000001E-002   3.1280000000000002E-002   4.3906600565608285        4.2417409646713633       0.22131450642109179        4.1152130199388326     
   4.8379999999999999E-002   3.4790000000000001E-002   4.8187773190877436        4.5034854049298216       0.42195626627657890        4.4787705741174957     
   7.3499999999999996E-002   3.8570000000000000E-002   5.1928520553785287        4.7167981400906216       0.60027856931022483        4.7947956656803026     
   9.8610000000000003E-002   4.2490000000000000E-002   5.4579969628259546        4.8594044841929493       0.72743205135738220        5.0178064183627979     
  0.12370000000000000        4.6489999999999997E-002   5.6174948968619010        4.9411733002758211       0.80384072879336144        5.1513875687541928     
  0.14879999999999999        5.0540000000000002E-002   5.7081716115229577        4.9880699046614705       0.84581646840569780        5.2275152006884440     
  0.17390000000000000        5.4609999999999999E-002   5.7528258240942129        5.0102481742915925       0.86719434910934889        5.2648415678842433     
  0.19900000000000001        5.8709999999999998E-002   5.7790548884258710        5.0256300848630628       0.88091718454726187        5.2874135529035566     
  0.22409999999999999        6.2810000000000005E-002   5.7852716399351207        5.0280731258043492       0.88187181284492910        5.2923656904359389     
  0.24920000000000000        6.6909999999999997E-002   5.7930126412671878        5.0332846996546614       0.88846549150792309        5.2993072018138525     
  0.27429999999999999        7.1020000000000000E-002   5.7912859878524294        5.0320311734935359       0.88577482529456175        5.2976827860433913     
  0.29940000000000000        7.5100000000000000E-002   5.7955675968428002        5.0356076569651966       0.88907612277808956        5.3016795886765236     
  0.32450000000000001        7.9170000000000004E-002   5.7892609921379306        5.0308326152658651       0.88597211491547845        5.2959918158336174     
  0.34960000000000002        8.3210000000000006E-002   5.7922593017322459        5.0337878575534569       0.88849253424532981        5.2989117388120439     
  0.37469999999999998        8.7200000000000000E-002   5.7827655434209797        5.0265743945771728       0.88338066770294976        5.2903242629835159     
  0.39979999999999999        9.1120000000000007E-002   5.7794188526864509        5.0230554946108095       0.88446644032066135        5.2871808847860988     
  0.42490000000000000        9.4930000000000000E-002   5.7644327373684616        5.0086490181448502       0.87578296141222256        5.2728497168804518     
  0.45000000000000001        9.8530000000000006E-002   5.7555676111788792        4.9995316677153960       0.86451072524278516        5.2639610828347303     
  0.47520000000000001       0.10170000000000000        5.7198909815272989        4.9627995242948151       0.81776501849818917        5.2281741569651947     
  0.50029999999999997       0.10370000000000000        5.4786657896591162        4.9948595425897002       0.54806839052209766        5.0608712884301665     
  0.52539999999999998       0.10170000000000000        4.3421777226404776        4.1777512217232253        7.1570361674433466E-002   4.0636400659910183     
  0.55049999999999999        9.8460000000000006E-002   3.6414537036432657        3.6155822084258307      -0.17948045520670075        3.4402739803453790     
  0.57560000000000000        9.4850000000000004E-002   3.2245389941276645        3.2630582216910113      -0.30514424116980632        3.0669922581311027     
  0.60070000000000001        9.1039999999999996E-002   2.9716463262184964        3.0425251676427876      -0.37242294562575551        2.8396113218326771     
  0.62580000000000002        8.7110000000000007E-002   2.8148866380382978        2.9041994498666921      -0.41018789835905223        2.6985509065414672     
  0.65090000000000003        8.3119999999999999E-002   2.7140188841621034        2.8140820386604095      -0.43278904201100904        2.6076007190966624     
  0.67600000000000005        7.9079999999999998E-002   2.6497133505984585        2.7564704560237012      -0.44660766128060037        2.5496345532877949     
  0.70109999999999995        7.5009999999999993E-002   2.6089517867434684        2.7199864155245805      -0.45520832018033164        2.5129321212624358     
  0.72619999999999996        7.0919999999999997E-002   2.5820879132572694        2.6960485886230212      -0.45903908416760825        2.4886986582707502     
  0.75129999999999997        6.6820000000000004E-002   2.5659388826108254        2.6820849451707400      -0.46285860865425166        2.4743410831958017     
  0.77649999999999997        6.2710000000000002E-002   2.5549133506472876        2.6724655533718864      -0.46432991843738031        2.4644573247099348     
  0.80159999999999998        5.8610000000000002E-002   2.5490653318799930        2.6678881946520745      -0.46588381435728027        2.4594129083387393     