VARIABLES = "X" "Y" "p" "rho" "T" "u" "v" "M"
ZONE I=  65    J=   57
 -0.50000000000000000        0.0000000000000000       0.17857142857142860        1.0000000000000000       0.17857142857142860        0.0000000000000000        0.0000000000000000        1.9999999999999998     
 -0.46153846380000002        0.0000000000000000       0.18652500063739141       0.49413010161034981       0.37748155805427369        0.0000000000000000        0.0000000000000000        1.9568947003404882     
 -0.42307692769999999        0.0000000000000000       0.20402711225239889       0.50086367840927759       0.40735058469478280        0.0000000000000000        0.0000000000000000        1.8710786393762207     
 -0.38461539150000001        0.0000000000000000       0.20441659275710750       0.48315645363080578       0.42308571317006211        0.0000000000000000        0.0000000000000000        1.8692952809407934     
 -0.34615385529999998        0.0000000000000000       0.20118607160040317       0.47015286844230714       0.42791629085868460        0.0000000000000000        0.0000000000000000        1.8842435047064519     
 -0.30769228939999999        0.0000000000000000       0.19829248076006092       0.46110336710354627       0.43003910816277335        0.0000000000000000        0.0000000000000000        1.8979416617722442     
 -0.26923075320000001        0.0000000000000000       0.19677047599000932       0.45658015087040332       0.43096590076221047        0.0000000000000000        0.0000000000000000        1.9052677400984881     
 -0.23076921700000000        0.0000000000000000       0.19650486843797635       0.45598076482934347       0.43094990752849138        0.0000000000000000        0.0000000000000000        1.9065549413189451     
 -0.19230768079999999        0.0000000000000000       0.19844791190409955       0.46198613452064774       0.42955382656669372        0.0000000000000000        0.0000000000000000        1.8971982499949032     
 -0.15384614469999999        0.0000000000000000       0.20201765088713652       0.47354990055732732       0.42660266774289091        0.0000000000000000        0.0000000000000000        1.8803613843254630     
 -0.11538460110000000        0.0000000000000000       0.20883075681595473       0.49563592671231921       0.42133902237713666        0.0000000000000000        0.0000000000000000        1.8494336317550397     
  -7.6923057439999998E-002   0.0000000000000000       0.21718801575945376       0.52564185350426995       0.41318630605903506        0.0000000000000000        0.0000000000000000        1.8135020605027770     
  -3.8461521270000000E-002   0.0000000000000000       0.22769271067948174       0.57018901759429030       0.39932847468748195        0.0000000000000000        0.0000000000000000        1.7711747753561651     
   1.8626451489999999E-008   0.0000000000000000       0.24324661713088380       0.62470242000149567       0.38937998212060937        0.0000000000000000        0.0000000000000000        1.7136123267688084     
   2.6315789669999999E-002   4.6421056610000001E-003  0.26621293992701306       0.69241419128263881       0.38447065828312399        0.0000000000000000        0.0000000000000000        1.6380283023670168     
   5.2631579339999998E-002   9.2842113230000006E-003  0.27408691009438185       0.72271548041622424       0.37924593774652576        0.0000000000000000        0.0000000000000000        1.6143282051174821     
   7.8947365280000001E-002   1.3926316050000000E-002  0.28092156053176598       0.74581502641962882       0.37666385173326739        0.0000000000000000        0.0000000000000000        1.5945694747349510     
  0.10526315870000000        1.8568422649999999E-002  0.28584821967370172       0.76137594118098928       0.37543637014628461        0.0000000000000000        0.0000000000000000        1.5807683660037966     
  0.13157895210000001        2.3210527379999998E-002  0.28935461496870696       0.77058478950737319       0.37550003440074176        0.0000000000000000        0.0000000000000000        1.5711613079466935     
  0.15789473060000001        2.7852632110000001E-002  0.29170684457590890       0.77542673568456344       0.37618878889748858        0.0000000000000000        0.0000000000000000        1.5648138178161213     
  0.18421052399999999        3.2494738699999998E-002  0.29317753135459323       0.77689824613184777       0.37736927945752879        0.0000000000000000        0.0000000000000000        1.5608840412902376     
  0.21052631740000000        3.7136845289999998E-002  0.29398165947475580       0.77593263686277147       0.37887523414838431        0.0000000000000000        0.0000000000000000        1.5587478362093108     
  0.23684211080000001        4.1778948160000003E-002  0.29426012644402766       0.77300290761194246       0.38067143544529858        0.0000000000000000        0.0000000000000000        1.5580101172894167     
  0.26315790410000001        4.6421054750000003E-002  0.29403021203229057       0.76824949774643847       0.38272750310256048        0.0000000000000000        0.0000000000000000        1.5586191346075238     
  0.28947368260000000        5.1063157620000001E-002  0.29325683287581861       0.76155044946003925       0.38507866824022752        0.0000000000000000        0.0000000000000000        1.5606729825283272     
  0.31578946110000000        5.5705264210000001E-002  0.29180957277590702       0.75238889495375316       0.38784407203915944        0.0000000000000000        0.0000000000000000        1.5645383562276112     
  0.34210526940000002        6.0347370800000001E-002  0.28944246846677391       0.73979783333387206       0.39124535842773683        0.0000000000000000        0.0000000000000000        1.5709228451990704     
  0.36842104790000002        6.4989477399999995E-002  0.28564679628262146       0.72195801006608917       0.39565569229777353        0.0000000000000000        0.0000000000000000        1.5813256059558025     
  0.39473685619999999        6.9631583989999996E-002  0.27942043628184871       0.69555438074713194       0.40172335049016350        0.0000000000000000        0.0000000000000000        1.5988469726713743     
  0.42105263469999998        7.4273690579999996E-002  0.26745054395577733       0.65179431267113352       0.41032966805084875        0.0000000000000000        0.0000000000000000        1.6342339913777522     
  0.44736841319999998        7.8915789720000004E-002  0.25008551719865851       0.59601044713800311       0.41959921742907391        0.0000000000000000        0.0000000000000000        1.6900194827079986     
  0.47368422150000000        8.3557896320000005E-002  0.21198585993495894       0.51426808322639506       0.41220885924907164        0.0000000000000000        0.0000000000000000        1.8356189629989565     
  0.50000000000000000        8.8200002910000005E-002  0.16350583247758343       0.42688115507857172       0.38302424581728972        0.0000000000000000        0.0000000000000000        2.0901110321726022     
  0.52631580830000002        8.3557896320000005E-002  0.14624570225443245       0.38267247707108781       0.38216937725381506        0.0000000000000000        0.0000000000000000        2.2100109526942098     
  0.55263155700000000        7.8915797169999996E-002  0.15394971706437255       0.37352181753584485       0.41215722840500163        0.0000000000000000        0.0000000000000000        2.1540041446928186     
  0.57894736530000002        7.4273690579999996E-002  0.13894806226503018       0.32107090744216027       0.43276441136312283        0.0000000000000000        0.0000000000000000        2.2673038989935379     
  0.60526317360000004        6.9631576540000004E-002  0.12998451859580629       0.30001890411586551       0.43325442767968725        0.0000000000000000        0.0000000000000000        2.3441757401257672     
  0.63157892230000001        6.4989477399999995E-002  0.12403378006796063       0.28494926488380579       0.43528373417119742        0.0000000000000000        0.0000000000000000        2.3997499561200013     
  0.65789473060000003        6.0347370800000001E-002  0.12066270043031437       0.27658514695820530       0.43625878597359269        0.0000000000000000        0.0000000000000000        2.4330411928667912     
  0.68421053890000005        5.5705264210000001E-002  0.11872112622745283       0.27149935210725823       0.43727959314080056        0.0000000000000000        0.0000000000000000        2.4528555789913327     
  0.71052628760000003        5.1063165069999999E-002  0.11744377164427104       0.26801368853091651       0.43820064672078646        0.0000000000000000        0.0000000000000000        2.4661585109759137     
  0.73684209590000005        4.6421054750000003E-002  0.11680472433146624       0.26599929648230769       0.43911666638274449        0.0000000000000000        0.0000000000000000        2.4728955768898406     
  0.76315790409999995        4.1778948160000003E-002  0.11669397681203446       0.26513312321135241       0.44013352763551605        0.0000000000000000        0.0000000000000000        2.4740687398558991     
  0.78947371239999997        3.7136837839999999E-002  0.11708455013411856       0.26541130776921040       0.44114378968333162        0.0000000000000000        0.0000000000000000        2.4699387651992226     
  0.81578946109999995        3.2494738699999998E-002  0.11806675017858588       0.26710681423843863       0.44202073434633932        0.0000000000000000        0.0000000000000000        2.4596435699342236     
  0.84210526939999997        2.7852632110000001E-002  0.11945487467596377       0.27016802130114331       0.44215031113106151        0.0000000000000000        0.0000000000000000        2.4453106743770672     
  0.86842107769999999        2.3210521790000001E-002  0.12134916324228404       0.27521171102586395       0.44093023073018806        0.0000000000000000        0.0000000000000000        2.4261496701073875     
  0.89473682639999996        1.8568424510000001E-002  0.12365943186685607       0.28325591032369379       0.43656434820916146        0.0000000000000000        0.0000000000000000        2.4033795346159805     
  0.92105263469999998        1.3926316050000000E-002  0.12630232305071717       0.29507259586743179       0.42803813305475996        0.0000000000000000        0.0000000000000000        2.3781010951130988     
  0.94736844300000000        9.2842066659999996E-003  0.12912100571969290       0.31295416235389573       0.41258759668989453        0.0000000000000000        0.0000000000000000        2.3520011627888446     
  0.97368419169999998        4.6421089210000000E-003  0.13227353686195406       0.33458710997774943       0.39533363036833802        0.0000000000000000        0.0000000000000000        2.3238040218428844     
   1.0000000000000000        0.0000000000000000       0.13551618692039316       0.35981638835164864       0.37662594397438387        0.0000000000000000        0.0000000000000000        2.2958335363849596     
   1.0384615660000001        0.0000000000000000       0.14539142234246166       0.39485455238811351       0.36821513507473097        0.0000000000000000        0.0000000000000000        2.2164941507904414     
   1.0769231319999999        0.0000000000000000       0.15145038856861553       0.42041957186758461       0.36023629417594377        0.0000000000000000        0.0000000000000000        2.1717047747751641     
   1.1153845790000001        0.0000000000000000       0.15669619629151058       0.44038177649924720       0.35581898401233786        0.0000000000000000        0.0000000000000000        2.1350436331826352     
   1.1538461449999999        0.0000000000000000       0.16071062422922400       0.45533412445023802       0.35295097731421521        0.0000000000000000        0.0000000000000000        2.1082091221305719     
   1.1923077110000000        0.0000000000000000       0.16364494794536297       0.46585267850180090       0.35128047019424907        0.0000000000000000        0.0000000000000000        2.0892224358563363     
   1.2307692770000001        0.0000000000000000       0.16571291588553369       0.47297547551644537       0.35036259692871086        0.0000000000000000        0.0000000000000000        2.0761455772868080     
   1.2692307229999999        0.0000000000000000       0.16709901293949206       0.47740954522632723       0.35001188101564840        0.0000000000000000        0.0000000000000000        2.0675167653742412     
   1.3076922890000000        0.0000000000000000       0.16796214666455689       0.47978119942864628       0.35008071776171473        0.0000000000000000        0.0000000000000000        2.0621975847681626     
   1.3461538550000001        0.0000000000000000       0.16837628941254423       0.48040269627785459       0.35048989257786972        0.0000000000000000        0.0000000000000000        2.0596599056749647     
   1.3846154209999999        0.0000000000000000       0.16845384360719851       0.47974423873235689       0.35113260359792819        0.0000000000000000        0.0000000000000000        2.0591857293334686     
   1.4230769870000000        0.0000000000000000       0.16818867584749322       0.47796014524826053       0.35188849430140917        0.0000000000000000        0.0000000000000000        2.0608083552760292     
   1.4615384339999999        0.0000000000000000       0.16772081533929659       0.47549642439039752       0.35272781610149928        0.0000000000000000        0.0000000000000000        2.0636806862543438     
   1.5000000000000000        0.0000000000000000       0.16725295483109992       0.47303270353253452       0.35357588086844932        0.0000000000000000        0.0000000000000000        2.0665650610753312     
 -0.50000000000000000        1.5999999600000000E-004  0.17857142857142860        1.0000000000000000       0.17857142857142860        1.0000000000000000        0.0000000000000000        1.9999999999999998     
 -0.46154057980000002        1.6049893749999999E-004  0.18652500074644685       0.49413010203971808       0.37748155794696758       0.11918125877508509       -1.3018154210113469E-002   1.9568946997684202     
 -0.42308041450000000        1.6101459910000001E-004  0.20402711276847571       0.50086368058782327       0.40735058395335344        5.7376103037724176E-002  -8.1455203527423994E-003   1.8710786370098187     
 -0.38462087509999998        1.6156499619999999E-004  0.20441659435042275       0.48315646082912123       0.42308571016443286        3.3017764499779841E-002  -3.8809880579061358E-003   1.8692952736557276     
 -0.34616088870000000        1.6216657240000000E-004  0.20118607557272433       0.47015288663284055       0.42791628275131244        2.4979962891915789E-002  -1.8051120881255813E-003   1.8842434861047161     
 -0.30770108099999999        1.6284831509999999E-004  0.19829248971681734       0.46110340650648551       0.43003909083900538        2.0334756124344631E-002  -1.1562444043435784E-003   1.8979416189077833     
 -0.26924151180000000        1.6363897880000000E-004  0.19677049553700121       0.45658023226726241       0.43096586674348231        1.7170938395880166E-002  -8.7755883579149826E-004   1.9052676454647526     
 -0.23078230020000001        1.6459012110000000E-004  0.19650490403761731       0.45598091003679231       0.43094984836483979        1.4565407718534196E-002  -7.8416272551658434E-004   1.9065547686192488     
 -0.19232320789999999        1.6577732459999999E-004  0.19844797686050147       0.46198638785259610       0.42955373162167576        1.2020055701552290E-002  -7.9484762224366436E-004   1.8971979394974516     
 -0.15386462209999999        1.6733008670000000E-004  0.20201774239076492       0.47355026014458662       0.42660253703394418        9.2050458241993566E-003  -8.5686812346747702E-004   1.8803609584720038     
 -0.11540649829999999        1.6949024579999999E-004  0.20883089694063858       0.49563642793370316       0.42133887900703704        5.9815908285898705E-003  -9.0607908704844837E-004   1.8494330112737072     
  -7.6949670910000004E-002   1.7281457260000000E-004  0.21718815829205748       0.52564234056429004       0.41318619435964887        2.4110633270660545E-003  -8.2051938252731898E-004   1.8135014654353134     
  -3.8495291020000003E-002   1.7903183470000000E-004  0.22769289772812570       0.57018936527180908       0.39932855924028776       -7.3165951199945386E-004  -4.8916228703744504E-004   1.7711740478501443     
  -4.8777495980000001E-005   1.9818214059999999E-004  0.24324679464492935       0.62470245040961203       0.38938024732484161       -2.5038855341616775E-003  -4.6357257242723396E-004   1.7136117014978514     
   2.6282107459999999E-002   4.8200460150000001E-003  0.26621309488598449       0.69241403925115386       0.38447096649555818       -3.1711589267199268E-003  -6.2116364419983377E-004   1.6380278256301042     
   5.2603937689999998E-002   9.4555737449999993E-003  0.27408704110553378       0.72271516563622651       0.37924628420416118       -2.4618240456760780E-003  -1.5864291362792146E-004   1.6143278193002211     
   7.8923642640000000E-002   1.4093560170000000E-002  0.28092167680459457       0.74581462990858582       0.37666420788638461       -9.9576513767037685E-004   1.8291518139010922E-004   1.5945691447406187     
  0.10524226730000000        1.8732549620000000E-002  0.28584832470716842       0.76137550968987666       0.37543672086799862        4.9683113502815271E-004   4.3424885370355694E-004   1.5807680755812501     
  0.13156047460000000        2.3372037339999999E-002  0.28935471462679119       0.77058436848131329       0.37550036889154476        1.8037169580617206E-003   6.2146367488768648E-004   1.5711610373809632     
  0.15787819030000000        2.8011834249999999E-002  0.29170694464557106       0.77542635766487022       0.37618910134035349        2.8740683725901515E-003   7.6111965704023872E-004   1.5648135494124948     
  0.18419569729999999        3.2651793210000002E-002  0.29317762118067775       0.77689790772738365       0.37736955945510781        3.7185985927845888E-003   8.6495928756616922E-004   1.5608838021722038     
  0.21051302550000001        3.7291839719999997E-002  0.29398174548399270       0.77593235993687348       0.37887548021313328        4.3724786744080372E-003   9.4374188120621174E-004   1.5587476081905240     
  0.23683029410000001        4.1931938379999999E-002  0.29426020812246217       0.77300269700768354       0.38067164482291227        4.8803216549085961E-003   1.0074458312469550E-003   1.5580099010593036     
  0.26314747329999999        4.6572003510000001E-002  0.29403028795521680       0.76824934956229673       0.38272767575102790        5.2879900829456124E-003   1.0639892954718525E-003   1.5586189333783678     
  0.28946453329999999        5.1211994140000001E-002  0.29325690089953749       0.76155034974106606       0.38507880798590333        5.6371639433565272E-003   1.1214210722288887E-003   1.5606728015218683     
  0.31578141450000002        5.5851876740000000E-002  0.29180962864643223       0.75238882054960665       0.38784418465079062        5.9658260948021397E-003   1.1874245953666074E-003   1.5645382064525948     
  0.34209835529999999        6.0491532090000001E-002  0.28944252503388063       0.73979778729937917       0.39124545923621407        6.3050519525762096E-003   1.2744106237389972E-003   1.5709226916926629     
  0.36841535570000000        6.5130911769999994E-002  0.28564684045941596       0.72195795153240483       0.39565578556633546        6.7091830118165526E-003   1.3806277476923238E-003   1.5813254836756139     
  0.39473202819999997        6.9769822060000000E-002  0.27942045630146700       0.69555427295792149       0.40172344152700062        7.0673110855206736E-003   1.6879836087299398E-003   1.5988469153951335     
  0.42104902859999999        7.4408002200000004E-002  0.26744993368173003       0.65179327258506747       0.41032938652619239        8.0618752285621167E-003   2.1719411955139975E-003   1.6342358558949899     
  0.44736602900000000        7.9044856129999994E-002  0.25008006212310724       0.59600071846837999       0.41959691385233605        6.9553785854235628E-003   8.0324112042649380E-003   1.6900379150724349     
  0.47368288040000001        8.3678655330000004E-002  0.21192272206969856       0.51437575798937629       0.41199982459919027        5.0907123207239030E-002   2.2387603815095556E-002   1.8358923844391948     
  0.50000000000000000        8.8295914229999994E-002  0.16280825754078798       0.42565544398139377       0.38248837138778530        9.1935036008036833E-002   4.5063691519096637E-002   2.0945839338197887     
  0.52631706000000000        8.3678655330000004E-002  0.14642414208752208       0.38275310097908294       0.38255507718414017        7.3102554370141543E-002  -3.2369935183042819E-002   2.2086639268620263     
  0.55263412000000001        7.9044863579999999E-002  0.15393794203830380       0.37349839238759036       0.41215155185609964        8.3565398581114166E-003  -1.3407881957026949E-002   2.1540865251950301     
  0.57895088200000000        7.4408009649999995E-002  0.13894471192501467       0.32106497683732216       0.43276197015850615        1.1356430822694951E-002  -3.2662047150426362E-003   2.2673312343022514     
  0.60526776309999997        6.9769814609999994E-002  0.12998441248761330       0.30001857361652307       0.43325455127906992        9.0908137986614596E-003  -2.9137685623870399E-003   2.3441766969181868     
  0.63158458470000001        6.5130919220000000E-002  0.12403374416238190       0.28494907534647373       0.43528389769844827        8.6794958206857196E-003  -2.0503731355314401E-003   2.3997503034625947     
  0.65790152550000003        6.0491532090000001E-002  0.12066284821031054       0.27658528392620313       0.43625910423529651        7.8534625866538369E-003  -1.9201374361112438E-003   2.4330397029511559     
  0.68421906229999996        5.5851869290000002E-002  0.11872129352460027       0.27149958958402842       0.43727982685534167        7.2295516677065366E-003  -1.7201751416452001E-003   2.4528538507592952     
  0.71053594350000004        5.1211997869999998E-002  0.11744395264724494       0.26801404267157664       0.43820074305270751        6.5973611053748125E-003  -1.5979286434971212E-003   2.4661566105707138     
  0.73685276509999997        4.6572003510000001E-002  0.11680492653464847       0.26599981916107079       0.43911656369931445        5.9479507049031675E-003  -1.4902028905871298E-003   2.4728934364511357     
  0.76316982509999998        4.1931927200000003E-002  0.11669419985605944       0.26513382820584441       0.44013319856514305        5.2429499405112785E-003  -1.3893829816281108E-003   2.4740663754431251     
  0.78948742149999995        3.7291832269999999E-002  0.11708480421545528       0.26541221047220370       0.44114324660175130        4.4770641683113252E-003  -1.2834409501016528E-003   2.4699360852370886     
  0.81580418349999995        3.2651789489999999E-002  0.11806702205310594       0.26710787266348540       0.44202000066786545        3.6338580701752833E-003  -1.1699683344604263E-003   2.4596407380054237     
  0.84212154149999996        2.8011834249999999E-002  0.11945516277746426       0.27016915740106112       0.44214951820031506        2.7151434115979386E-003  -1.0370015690787519E-003   2.4453077255798665     
  0.86843913790000005        2.3372029890000000E-002  0.12134946601521283       0.27521285464073586       0.44092949863705672        1.7303576126213936E-003  -8.7379893259654747E-004   2.4261466434236958     
  0.89475727080000000        1.8732540310000000E-002  0.12365974121984941       0.28325692979840644       0.43656386909177425        7.2621569083997117E-004  -6.6191133401502652E-004   2.4033765284107642     
  0.92107588050000000        1.4093558300000000E-002  0.12630262937073566       0.29507336381183408       0.42803805717712234       -2.0724364580701552E-004  -3.9618464319825356E-004   2.3780982113235187     
  0.94739592080000001        9.4555737449999993E-003  0.12912133142685070       0.31295450105121886       0.41258819091315257       -9.1291966431580006E-004  -4.2177405777420453E-005   2.3519981963382648     
  0.97371786829999996        4.8200492750000001E-003  0.13227384063489428       0.33458682492245401       0.39533487508227771       -9.2216086340481509E-004   1.2553094454578252E-004   2.3238013534801074     
   1.0000486369999999        1.9818263540000001E-004  0.13551649030811011       0.35981543716037212       0.37662778278106374       -1.2498835867592421E-003   6.1205518683157522E-005   2.2958309664833805     
   1.0384945870000000        1.7903096160000001E-004  0.14539164862269255       0.39485312152404450       0.36821704248281839       -1.4969258927930314E-003   1.0901920350423428E-004   2.2164924259699026     
   1.0769493580000000        1.7281467440000001E-004  0.15145060889802872       0.42041789186796391       0.36023825776090701       -4.8634004514614055E-004   3.1152625220579277E-004   2.1717031950832237     
   1.1154063940000001        1.6949049309999999E-004  0.15669639041935490       0.44037993427945665       0.35582091331145527        7.9228431396804002E-004   3.2708454989849436E-004   2.1350423106520222     
   1.1538647410000000        1.6733014490000000E-004  0.16071084702701416       0.45533228144340726       0.35295289522974166        1.9892283007047554E-003   2.9506389524868354E-004   2.1082076607964266     
   1.1923223730000001        1.6577749920000000E-004  0.16364522078425239       0.46585094035486713       0.35128236654324196        3.0119652716908245E-003   2.4813911633319587E-004   2.0892206942186520     
   1.2307825090000000        1.6459039760000001E-004  0.16571324708639640       0.47297391530727179       0.35036445292916268        3.8399368214755364E-003   2.0060890325246551E-004   2.0761435025536108     
   1.2692415710000000        1.6363925530000001E-004  0.16709940265869277       0.47740821772499670       0.35001367059615152        4.4888424209856620E-003   1.5878844495559197E-004   2.0675143543798322     
   1.3077015880000000        1.6284848970000000E-004  0.16796259374830275       0.47978014678123521       0.35008241769722176        4.9897064823689954E-003   1.2395317354085367E-004   2.0621948401819608     
   1.3461599350000000        1.6216676159999999E-004  0.16837678944522480       0.48040195057524887       0.35049147748797643        5.3702123424706136E-003   9.5815423243047790E-005   2.0596568473614298     
   1.3846217390000000        1.6156509810000001E-004  0.16845440068600001       0.47974382163936602       0.35113407007590580        5.6558552237082641E-003   7.2752462393530797E-005   2.0591823244664487     
   1.4230790140000000        1.6101448269999999E-004  0.16818927198516262       0.47796001996295973       0.35188983379445987        5.8619352987303629E-003   5.3463252339506915E-005   2.0608047030615806     
   1.4615408180000000        1.6049890839999999E-004  0.16772142358580003       0.47549653804770442       0.35272901097120773        6.0020660521384944E-003   4.5544114243079375E-005   2.0636769442526579     
   1.5000000000000000        1.5999999600000000E-004  0.16725295104663304       0.47303270353253440       0.35357587286801551        6.1436081356311149E-003   3.7535713730049467E-005   2.0665650844556271     
 -0.50000000000000000        3.1999999190000003E-004  0.17857142857142860        1.0000000000000000       0.17857142857142860        1.0000000000000000        0.0000000000000000        1.9999999999999998     
 -0.46154263620000002        3.2099790410000000E-004  0.18352482468673564       0.49994818365469396       0.36708769165864846       0.21279574391630857        1.0623519641137195E-002   1.9728250475815570     
 -0.42308384180000003        3.2202931469999999E-004  0.19946814250132364       0.49471356220606411       0.40319926062232903       0.11057401204462500       -6.5954915523214397E-003   1.8923401783425595     
 -0.38462632889999998        3.2313010890000000E-004  0.20232872164779242       0.47986020340546093       0.42164097004067136        6.6676032806847182E-002  -3.4470502227762290E-003   1.8789153453298537     
 -0.34616792200000002        3.2433331939999999E-004  0.20010882009126071       0.46850864660758429       0.42711873417966778        5.0299822083434240E-002  -1.8039680817897165E-003   1.8893084481478668     
 -0.30770987270000000        3.2569680480000002E-004  0.19760715166400145       0.46007984298496296       0.42950621436040604        4.0779962516165863E-002  -1.1692281457503361E-003   1.9012299760337648     
 -0.26925230030000002        3.2727816139999999E-004  0.19626254945844052       0.45580191438868906       0.43058737417034171        3.4343900080942798E-002  -8.8334612254994688E-004   1.9077315589025687     
 -0.23079538350000001        3.2918035869999998E-004  0.19604772303085799       0.45518506963732730       0.43069893128757658        2.9036216220511803E-002  -7.9126726385492479E-004   1.9087765058646429     
 -0.19233874979999999        3.3155464919999998E-004  0.19796929535586999       0.46105142738779858       0.42938657944844510        2.3986097630962971E-002  -8.0959292218418810E-004   1.8994902274402754     
 -0.15388311450000000        3.3465982410000000E-004  0.20148425851909718       0.47240987929123868       0.42650305878739464        1.8462286403140689E-002  -8.5593246158377359E-004   1.8828486940075426     
 -0.11542839560000000        3.3897912360000002E-004  0.20824266009855705       0.49428350784447256       0.42130206003976384        1.2142949436101396E-002  -8.9332454160367654E-004   1.8520432772196429     
  -7.6976284379999996E-002   3.4562489599999999E-004  0.21661987588031209       0.52425738826412982       0.41319374934812614        5.1833355939733001E-003  -7.9436775039048318E-004   1.8158786848818704     
  -3.8529042149999998E-002   3.5804454820000001E-004  0.22729081558926970       0.56916318592664006       0.39934208889358036       -1.0843415670378489E-003  -4.3106435719703491E-004   1.7727399773193382     