VARIABLES = "X" "Y" "p" "M"
ZONE I=  71    J=   48
 -0.50000000000000000        0.0000000000000000       0.71428571428571441        1.6329931618554518     
 -0.46670000000000000        0.0000000000000000       0.71432818953294663        1.6331348277896029     
 -0.43330000000000002        0.0000000000000000       0.71446102283155832        1.6326209658178776     
 -0.40000000000000002        0.0000000000000000       0.71430776997492840        1.6331880842400355     
 -0.36670000000000003        0.0000000000000000       0.71428748613563564        1.6331804009739830     
 -0.33329999999999999        0.0000000000000000       0.71458803935046322        1.6329993463883401     
 -0.29999999999999999        0.0000000000000000       0.71479649910835941        1.6326845514876769     
 -0.26669999999999999        0.0000000000000000       0.71467610225152001        1.6332152728514482     
 -0.23330000000000001        0.0000000000000000       0.71466684025725002        1.6330309096782696     
 -0.20000000000000001        0.0000000000000000       0.71489575032917707        1.6329283188015289     
 -0.16669999999999999        0.0000000000000000       0.71491647623717525        1.6348940348247878     
 -0.13330000000000000        0.0000000000000000       0.71516647010202927        1.6352162128609613     
 -0.10000000000000001        0.0000000000000000       0.71555985295954805        1.6345858274086618     
  -6.6669999999999993E-002   0.0000000000000000       0.71605522575968750        1.6381093975234620     
  -3.3329999999999999E-002   0.0000000000000000       0.71699611278110886        1.6475652493315933     
   0.0000000000000000        0.0000000000000000       0.75279808906830525        1.5956206464193956     
   2.5000000000000001E-002   4.4099999999999999E-003  0.92335038815258896        1.5099993607932307     
   5.0000000000000003E-002   8.8199999999999997E-003   1.0488110392025243        1.4661510256464920     
   7.4999999999999997E-002   1.3230000000000000E-002   1.1288137732981216        1.4497374386226172     
  0.10000000000000001        1.7639999999999999E-002   1.1742037019089473        1.4458740872858393     
  0.12500000000000000        2.2050000000000000E-002   1.1976077668389902        1.4476814143509895     
  0.14999999999999999        2.6460000000000001E-002   1.2093829847475270        1.4469954399883789     
  0.17499999999999999        3.0870000000000002E-002   1.2152905490659265        1.4495692705300594     
  0.20000000000000001        3.5279999999999999E-002   1.2169773026924480        1.4496239457728242     
  0.22500000000000001        3.9690000000000003E-002   1.2184861200878689        1.4506520771622204     
  0.25000000000000000        4.4100000000000000E-002   1.2182069190876046        1.4506381708376588     
  0.27500000000000002        4.8509999999999998E-002   1.2180605045371991        1.4515504508929009     
  0.29999999999999999        5.2920000000000002E-002   1.2176303880318724        1.4510166965156497     
  0.32500000000000001        5.7329999999999999E-002   1.2172907486924229        1.4520967247958090     
  0.34999999999999998        6.1740000000000003E-002   1.2161361170579310        1.4512331207443814     
  0.37500000000000000        6.6150000000000000E-002   1.2156364530795336        1.4519554224523297     
  0.40000000000000002        7.0559999999999998E-002   1.2136581921868326        1.4510447818449057     
  0.42499999999999999        7.4969999999999995E-002   1.2117784627372865        1.4516155181598065     
  0.45000000000000001        7.9380000000000006E-002   1.2090696683425801        1.4468518640404702     
  0.47499999999999998        8.3790000000000003E-002   1.2068676298713390        1.4318149587873479     
  0.50000000000000000        8.8200000000000001E-002   1.0390397378293434        1.5441950809605103     
  0.52500000000000002        8.3790000000000003E-002  0.69300536160300108        1.6516741743576240     
  0.55000000000000004        7.9380000000000006E-002  0.56038501677060715        1.6873365859112519     
  0.57499999999999996        7.4969999999999995E-002  0.49506415457038200        1.6986478283149677     
  0.59999999999999998        7.0559999999999998E-002  0.45961145738663550        1.7029223808720493     
  0.62500000000000000        6.6150000000000000E-002  0.43905554579440881        1.7085520732724520     
  0.65000000000000002        6.1740000000000003E-002  0.42661498300206846        1.7082556483569209     
  0.67500000000000004        5.7329999999999999E-002  0.41911417664823453        1.7113209872841539     
  0.69999999999999996        5.2920000000000002E-002  0.41446158023396446        1.7101214779046492     
  0.72499999999999998        4.8509999999999998E-002  0.41124812251711829        1.7120227181005017     
  0.75000000000000000        4.4100000000000000E-002  0.40937677721602778        1.7115676604239236     
  0.77500000000000002        3.9690000000000003E-002  0.40788538397893276        1.7159049653324665     
  0.80000000000000004        3.5279999999999999E-002  0.40695176961311041        1.7147283587219389     
  0.82499999999999996        3.0870000000000002E-002  0.40635283846625569        1.7168337157008509     
  0.84999999999999998        2.6460000000000001E-002  0.40599323458269720        1.7160427450581519     
  0.87500000000000000        2.2050000000000000E-002  0.40560807250667441        1.7153898132675647     
  0.90000000000000002        1.7639999999999999E-002  0.40531350541776601        1.7172358359682052     
  0.92500000000000004        1.3230000000000000E-002  0.40502875228246171        1.7197452131244420     
  0.94999999999999996        8.8199999999999997E-003  0.40484612079490329        1.7237770151266831     
  0.97499999999999998        4.4099999999999999E-003  0.40544619315858554        1.7308077822083372     
   1.0000000000000000        0.0000000000000000       0.43690939078060875        1.6763215338205453     
   1.0329999999999999        0.0000000000000000       0.54782310663203315        1.5929427358935075     
   1.0669999999999999        0.0000000000000000       0.62577944032881505        1.5662041416032715     
   1.1000000000000001        0.0000000000000000       0.67071069990815024        1.5556701898152363     
   1.1330000000000000        0.0000000000000000       0.69436939906293282        1.5536522251368066     
   1.1670000000000000        0.0000000000000000       0.70434518001977275        1.5589599566845473     
   1.2000000000000000        0.0000000000000000       0.71085962943398484        1.5658603539649059     
   1.2330000000000001        0.0000000000000000       0.71418270979134113        1.5527076504993276     
   1.2669999999999999        0.0000000000000000       0.71584635168766420        1.5566751573442641     
   1.3000000000000000        0.0000000000000000       0.71518547435172664        1.5581381660067704     
   1.3330000000000000        0.0000000000000000       0.71809099735033655        1.5657494406171344     
   1.3670000000000000        0.0000000000000000       0.71658911049056362        1.5585790084677622     
   1.3999999999999999        0.0000000000000000       0.71554985563022910        1.5585820679743447     
   1.4330000000000001        0.0000000000000000       0.71447890271783210        1.5599057546888424     
   1.4670000000000001        0.0000000000000000       0.71699979582245776        1.5574294162350177     
   1.5000000000000000        0.0000000000000000       0.71951725417923906        1.5549604330054481     
 -0.50000000000000000        1.1830000000000000E-002  0.71428571428571441        1.6329931618554518     
 -0.46670000000000000        1.1870000000000000E-002  0.71432818953294674        1.6330395263762001     
 -0.43340000000000001        1.1900000000000001E-002  0.71446102283155821        1.6329902638081630     
 -0.40020000000000000        1.1930000000000000E-002  0.71430776997492862        1.6330565440252665     
 -0.36690000000000000        1.1970000000000000E-002  0.71428748613563531        1.6331291587997561     
 -0.33360000000000001        1.2010000000000000E-002  0.71458803935046322        1.6330718732097009     
 -0.30030000000000001        1.2060000000000000E-002  0.71479649910835907        1.6331144128816437     
 -0.26710000000000000        1.2109999999999999E-002  0.71467610225151990        1.6332335370479372     
 -0.23380000000000001        1.2170000000000000E-002  0.71466684025724980        1.6333677796518045     
 -0.20050000000000001        1.2239999999999999E-002  0.71489575032917718        1.6335888046417288     
 -0.16730000000000000        1.2330000000000001E-002  0.71491647623717525        1.6338459903563407     
 -0.13400000000000001        1.2449999999999999E-002  0.71516647010202927        1.6343159790413899     
 -0.10070000000000000        1.2610000000000000E-002  0.71555985295954805        1.6351095663621298     
  -6.7460000000000006E-002   1.2860000000000000E-002  0.71605522575968727        1.6369603167515483     
  -3.4209999999999997E-002   1.3299999999999999E-002  0.71699611278110909        1.6414726438046725     
  -9.5859999999999999E-004   1.4400000000000000E-002  0.75279808906830514        1.6080336884128625     
   2.4119999999999999E-002   1.7809999999999999E-002  0.92335038815258852        1.5405988678367077     
   4.9189999999999998E-002   2.1720000000000000E-002   1.0488110392025243        1.4974239284692148     
   7.4249999999999997E-002   2.5800000000000000E-002   1.1288137732981214        1.4717985377739440     
   9.9309999999999996E-002   2.9960000000000001E-002   1.1742037019089473        1.4577384891693936     
  0.12440000000000000        3.4160000000000003E-002   1.1976077668389900        1.4506920048959204     
  0.14940000000000001        3.8390000000000001E-002   1.2093829847475270        1.4471935152708644     
  0.17449999999999999        4.2630000000000001E-002   1.2152905490659265        1.4456756153147865     
  0.19950000000000001        4.6890000000000001E-002   1.2169773026924477        1.4452686102544936     
  0.22459999999999999        5.1139999999999998E-002   1.2184861200878689        1.4449267813014597     
  0.24959999999999999        5.5399999999999998E-002   1.2182069190876046        1.4452454505215382     
  0.27470000000000000        5.9659999999999998E-002   1.2180605045371988        1.4451953604939032     
  0.29970000000000002        6.3909999999999995E-002   1.2176303880318724        1.4454184898460269     
  0.32479999999999998        6.8150000000000002E-002   1.2172907486924229        1.4454652952600833     
  0.34980000000000000        7.2380000000000000E-002   1.2161361170579310        1.4456211349759358     
  0.37490000000000001        7.6579999999999995E-002   1.2156364530795334        1.4454566852314172     
  0.39989999999999998        8.0750000000000002E-002   1.2136581921868324        1.4454924299343661     
  0.42499999999999999        8.4860000000000005E-002   1.2117784627372865        1.4447999660200777     
  0.45000000000000001        8.8880000000000001E-002   1.2090696683425799        1.4425873713106225     
  0.47510000000000002        9.2649999999999996E-002   1.2068676298713390        1.4341236242309161     
  0.50009999999999999        9.5600000000000004E-002   1.0390397378293437        1.5223063509241350     
  0.52520000000000000        9.2619999999999994E-002  0.69300536160300119        1.6015802968284050     
  0.55020000000000002        8.8830000000000006E-002  0.56038501677060726        1.6482585938193111     
  0.57530000000000003        8.4820000000000007E-002  0.49506415457038189        1.6764090509286795     
  0.60040000000000004        8.0710000000000004E-002  0.45961145738663561        1.6936460052601567     
  0.62539999999999996        7.6539999999999997E-002  0.43905554579440886        1.7046606048319657     
  0.65049999999999997        7.2330000000000005E-002  0.42661498300206846        1.7116890332307797     
  0.67549999999999999        6.8099999999999994E-002  0.41911417664823436        1.7161914196837615     
  0.70060000000000000        6.3860000000000000E-002  0.41446158023396434        1.7191489342933668     
  0.72560000000000002        5.9610000000000003E-002  0.41124812251711840        1.7213247581958564     
  0.75070000000000003        5.5350000000000003E-002  0.40937677721602778        1.7228129845530018     
  0.77569999999999995        5.1090000000000003E-002  0.40788538397893265        1.7239926928974707     
  0.80079999999999996        4.6840000000000000E-002  0.40695176961311041        1.7248756974913353     
  0.82579999999999998        4.2580000000000000E-002  0.40635283846625569        1.7256684309937167     
  0.85089999999999999        3.8339999999999999E-002  0.40599323458269732        1.7264451153908189     
  0.87600000000000000        3.4110000000000001E-002  0.40560807250667452        1.7272868697765704     
  0.90100000000000002        2.9909999999999999E-002  0.40531350541776590        1.7284324447663899     
  0.92610000000000003        2.5739999999999999E-002  0.40502875228246182        1.7298746677654873     
  0.95109999999999995        2.1669999999999998E-002  0.40484612079490312        1.7321057159118634     
  0.97619999999999996        1.7760000000000001E-002  0.40544619315858543        1.7362884190670207     
   1.0009999999999999        1.4370000000000001E-002  0.43690939078060864        1.7009200633347308     
   1.0340000000000000        1.3290000000000000E-002  0.54782310663203315        1.6383377075027141     
   1.0680000000000001        1.2860000000000000E-002  0.62577944032881505        1.6017071442720514     
   1.1010000000000000        1.2610000000000000E-002  0.67071069990815024        1.5822042058170007     
   1.1339999999999999        1.2449999999999999E-002  0.69436939906293293        1.5720414711160595     
   1.1670000000000000        1.2330000000000001E-002  0.70434518001977275        1.5680537844381983     
   1.2010000000000001        1.2239999999999999E-002  0.71085962943398473        1.5654714118454331     
   1.2340000000000000        1.2170000000000000E-002  0.71418270979134113        1.5640534497336618     
   1.2669999999999999        1.2109999999999999E-002  0.71584635168766420        1.5633868594677218     
   1.3000000000000000        1.2060000000000000E-002  0.71518547435172675        1.5638206122570608     
   1.3340000000000001        1.2010000000000000E-002  0.71809099735033644        1.5625832936984452     
   1.3670000000000000        1.1970000000000000E-002  0.71658911049056362        1.5633436964097416     
   1.3999999999999999        1.1930000000000000E-002  0.71554985563022899        1.5638422688472193     
   1.4330000000000001        1.1900000000000001E-002  0.71447890271783210        1.5643256133192811     
   1.4670000000000001        1.1870000000000000E-002  0.71699979582245765        1.5632474666574554     
   1.5000000000000000        1.1830000000000000E-002  0.71950243027931604        1.5621981200477801     
 -0.50000000000000000        2.3910000000000001E-002  0.71428571428571441        1.6329931618554518     
 -0.46679999999999999        2.3970000000000002E-002  0.71470063122442473        1.6329456639955928     
 -0.43359999999999999        2.4039999999999999E-002  0.71414242542447670        1.6332328119923074     
 -0.40029999999999999        2.4109999999999999E-002  0.71418289206451468        1.6331609677254160     
 -0.36709999999999998        2.4180000000000000E-002  0.71452247719903461        1.6330858925307583     
 -0.33389999999999997        2.4260000000000000E-002  0.71452870204838193        1.6331467550785221     
 -0.30070000000000002        2.4350000000000000E-002  0.71469414562867539        1.6332009474750790     
 -0.26750000000000002        2.4459999999999999E-002  0.71470960552868357        1.6332586533273377     
 -0.23430000000000001        2.4580000000000001E-002  0.71470867639356883        1.6334458192491759     
 -0.20110000000000000        2.4719999999999999E-002  0.71445744476463380        1.6336724367683573     
 -0.16780000000000000        2.4910000000000002E-002  0.71511849011670037        1.6337700346879891     
 -0.13460000000000000        2.5139999999999999E-002  0.71534167006047000        1.6341772877687577     
 -0.10150000000000001        2.5460000000000000E-002  0.71533284808517672        1.6349146291978998     
  -6.8269999999999997E-002   2.5930000000000002E-002  0.71589951134535357        1.6358512391955271     
  -3.5090000000000003E-002   2.6730000000000000E-002  0.71758709105384522        1.6359772830802020     
  -1.9330000000000000E-003   2.8379999999999999E-002  0.73115827880071438        1.6207145874072564     
   2.3230000000000001E-002   3.1280000000000002E-002  0.82427954369209977        1.5797524104827574     
   4.8379999999999999E-002   3.4790000000000001E-002  0.94235390985621736        1.5328309158779558     
   7.3499999999999996E-002   3.8570000000000000E-002   1.0471628966205433        1.4952522827148442     
   9.8610000000000003E-002   4.2490000000000000E-002   1.1224401648164033        1.4700984436540590     
  0.12370000000000000        4.6489999999999997E-002   1.1682941902154467        1.4552712204643434     
  0.14879999999999999        5.0540000000000002E-002   1.1941778622748842        1.4473564134980113     
  0.17390000000000000        5.4609999999999999E-002   1.2070874842217485        1.4433516731575677     
  0.19900000000000001        5.8709999999999998E-002   1.2140231965755510        1.4417482382776938     
  0.22409999999999999        6.2810000000000005E-002   1.2160649044910758        1.4409247262644167     
  0.24920000000000000        6.6909999999999997E-002   1.2178320196117396        1.4407682297189797     
  0.27429999999999999        7.1020000000000000E-002   1.2175139502905981        1.4407179875502729     
  0.29940000000000000        7.5100000000000000E-002   1.2183339577716303        1.4408075468726174     
  0.32450000000000001        7.9170000000000004E-002   1.2169268003215592        1.4408986193772308     
  0.34960000000000002        8.3210000000000006E-002   1.2173799756367369        1.4410966350654129     
  0.37469999999999998        8.7200000000000000E-002   1.2152869733650902        1.4412060131369517     
  0.39979999999999999        9.1120000000000007E-002   1.2146653244861627        1.4411144839901662     
  0.42490000000000000        9.4930000000000000E-002   1.2121371126590710        1.4404161213123716     
  0.45000000000000001        9.8530000000000006E-002   1.2110524797415123        1.4395382783770283     
  0.47520000000000001       0.10170000000000000        1.2067031972530198        1.4359546623929149     
  0.50029999999999997       0.10370000000000000        1.1026277249363419        1.4977235406736022     
  0.52539999999999998       0.10170000000000000       0.82130987197952032        1.5713866730366823     
  0.55049999999999999        9.8460000000000006E-002  0.65636143625329813        1.6233877044534011     
  0.57560000000000000        9.4850000000000004E-002  0.56061411026252594        1.6597101777539565     
  0.60070000000000001        9.1039999999999996E-002  0.50349079516314232        1.6844217934216503     
  0.62580000000000002        8.7110000000000007E-002  0.46819656125163905        1.7015277734387992     
  0.65090000000000003        8.3119999999999999E-002  0.44567052558574544        1.7131072516518411     
  0.67600000000000005        7.9079999999999998E-002  0.43129296613554879        1.7209395217402517     
  0.70109999999999995        7.5009999999999993E-002  0.42213863882410552        1.7261691891519970     
  0.72619999999999996        7.0919999999999997E-002  0.41615024414392554        1.7296035680615616     
  0.75129999999999997        6.6820000000000004E-002  0.41234015974180693        1.7321408448392737     
  0.77649999999999997        6.2710000000000002E-002  0.40982019476899845        1.7337180597241526     
  0.80159999999999998        5.8610000000000002E-002  0.40828559002748843        1.7349774780419871     
  0.82669999999999999        5.4510000000000003E-002  0.40706372528732943        1.7360340963909719     
  0.85180000000000000        5.0430000000000003E-002  0.40639039502745700        1.7369030888219983     
  0.87690000000000001        4.6390000000000001E-002  0.40579543683264108        1.7378811847857607     
  0.90200000000000002        4.2389999999999997E-002  0.40525843664862810        1.7388990199483971     
  0.92720000000000002        3.8469999999999997E-002  0.40506610323601222        1.7399849711932280     
  0.95230000000000004        3.4700000000000002E-002  0.40504337378703570        1.7411904199657764     
  0.97740000000000005        3.1199999999999999E-002  0.40474058425470910        1.7421821084775007     
   1.0029999999999999        2.8330000000000001E-002  0.41572699338645325        1.7272098631583341     
   1.0360000000000000        2.6710000000000001E-002  0.48549928661615399        1.6828577684382839     
   1.0690000000000000        2.5919999999999999E-002  0.56388037803655744        1.6400947329753157     
   1.1020000000000001        2.5450000000000000E-002  0.62534985349511796        1.6097077447737267     
   1.1350000000000000        2.5139999999999999E-002  0.66767283833077096        1.5903985907793816     
   1.1679999999999999        2.4899999999999999E-002  0.69013798565823004        1.5803841263952938     
   1.2010000000000001        2.4719999999999999E-002  0.70086784650617262        1.5757398498849995     
   1.2350000000000001        2.4580000000000001E-002  0.71126048711010670        1.5712366862736475     
   1.2680000000000000        2.4459999999999999E-002  0.71394461082413718        1.5701608990390656     
   1.3009999999999999        2.4350000000000000E-002  0.71533056696800923        1.5695649971698189     
   1.3340000000000001        2.4260000000000000E-002  0.71686504245152671        1.5689724879966780     
   1.3670000000000000        2.4180000000000000E-002  0.71590802259772868        1.5694350897748264     
   1.3999999999999999        2.4109999999999999E-002  0.71359633097472153        1.5703953111139968     
   1.4339999999999999        2.4039999999999999E-002  0.71780264929199433        1.5685117899588377     
   1.4670000000000001        2.3970000000000002E-002  0.71687314309324757        1.5690651973228846     
   1.5000000000000000        2.3910000000000001E-002  0.71593163247520220        1.5696350086375912     
 -0.50000000000000000        3.6229999999999998E-002  0.71428571428571441        1.6329931618554518     
 -0.46679999999999999        3.6319999999999998E-002  0.71449554059657361        1.6327968252077967     
 -0.43369999999999997        3.6420000000000001E-002  0.71411148425951421        1.6330138605760287     
 -0.40050000000000002        3.6530000000000000E-002  0.71425060147128416        1.6330179579759991     
 -0.36730000000000002        3.6639999999999999E-002  0.71452608708563570        1.6329102038974175     
 -0.33420000000000000        3.6760000000000001E-002  0.71442730944592603        1.6330703606817580     
 -0.30099999999999999        3.6900000000000002E-002  0.71454270246035478        1.6329723842326234     
 -0.26790000000000003        3.7060000000000003E-002  0.71475482929714840        1.6330638376559554     
 -0.23469999999999999        3.7240000000000002E-002  0.71489478770565407        1.6331893374869608     
 -0.20160000000000000        3.7460000000000000E-002  0.71469052989975257        1.6334103663173625     
 -0.16850000000000001        3.7719999999999997E-002  0.71478023092138265        1.6336747242710106     
 -0.13530000000000000        3.8070000000000000E-002  0.71519486567348867        1.6338623272721582     
 -0.10220000000000000        3.8539999999999998E-002  0.71527335103096679        1.6344037749039715     
  -6.9089999999999999E-002   3.9219999999999998E-002  0.71567800806948001        1.6347643880856970     
  -3.5990000000000001E-002   4.0289999999999999E-002  0.71667124936151516        1.6337222747017279     
  -2.9210000000000000E-003   4.2220000000000001E-002  0.72199582289873587        1.6263859982957278     
   2.2320000000000000E-002   4.4839999999999998E-002  0.77112355803078891        1.6042218697167512     
   4.7550000000000002E-002   4.8039999999999999E-002  0.85961716494965845        1.5669785540153920     
   7.2730000000000003E-002   5.1549999999999999E-002  0.96341154246621374        1.5268857555876214     
   9.7909999999999997E-002   5.5239999999999997E-002   1.0567218943455987        1.4935504296082909     
  0.12310000000000000        5.9040000000000002E-002   1.1258018821894391        1.4702430002917408     
  0.14820000000000000        6.2899999999999998E-002   1.1688295422110824        1.4560447484014267     
  0.17340000000000000        6.6809999999999994E-002   1.1935805251451879        1.4481908356790081     
  0.19860000000000000        7.0749999999999993E-002   1.2075704840252470        1.4439475172444969     
  0.22370000000000001        7.4700000000000003E-002   1.2131121198055825        1.4423349355758408     
  0.24890000000000001        7.8649999999999998E-002   1.2161855807539181        1.4412118168833885     
  0.27400000000000002        8.2589999999999997E-002   1.2170453991929850        1.4410455828030857     
  0.29920000000000002        8.6510000000000004E-002   1.2181560487968461        1.4409451573330734     
  0.32429999999999998        9.0399999999999994E-002   1.2161936926698906        1.4406289663209368     
  0.34949999999999998        9.4240000000000004E-002   1.2184052544507085        1.4405745638273864     
  0.37459999999999999        9.8019999999999996E-002   1.2152381101122929        1.4407056863227974     
  0.39979999999999999       0.10170000000000000        1.2160890151609878        1.4400523725662917     
  0.42490000000000000       0.10520000000000000        1.2136052500855969        1.4396376828993203     
  0.45010000000000000       0.10840000000000000        1.2141705749030285        1.4388257266966624     
  0.47520000000000001       0.11110000000000000        1.2101224397258763        1.4395720739985010     
  0.50039999999999996       0.11250000000000000        1.1354905182965318        1.4801142659234290     
  0.52559999999999996       0.11100000000000000       0.91425713555862309        1.5442669345521043     
  0.55069999999999997       0.10829999999999999       0.74390781507538450        1.5969280747944561     
  0.57589999999999997       0.10510000000000000       0.63087673762699636        1.6374163812686415     
  0.60109999999999997       0.10160000000000000       0.55635354588885777        1.6673077176562816     
  0.62619999999999998        9.7900000000000001E-002  0.50591202783389633        1.6894424132435204     
  0.65139999999999998        9.4119999999999995E-002  0.47320552107277869        1.7056288793852323     
  0.67649999999999999        9.0270000000000003E-002  0.45021677118194459        1.7170475270606365     
  0.70169999999999999        8.6379999999999998E-002  0.43510703081288388        1.7252847938933089     
  0.72689999999999999        8.2449999999999996E-002  0.42532147403845677        1.7307707294694170     
  0.75200000000000000        7.8509999999999996E-002  0.41835577397213053        1.7347118499664327     
  0.77720000000000000        7.4560000000000001E-002  0.41405072298031553        1.7375055548528191     
  0.80240000000000000        7.0610000000000006E-002  0.41089643687343019        1.7395077263449661     
  0.82750000000000001        6.6669999999999993E-002  0.40869562004909410        1.7411056590044920     
  0.85270000000000001        6.2759999999999996E-002  0.40719125909932641        1.7423625075906595     
  0.87790000000000001        5.8889999999999998E-002  0.40615527361653292        1.7433566880562132     
  0.90310000000000001        5.5090000000000000E-002  0.40575845409158540        1.7441395058208433     
  0.92830000000000001        5.1400000000000001E-002  0.40541661896453685        1.7450133328117654     
  0.95350000000000001        4.7899999999999998E-002  0.40534433927972857        1.7457291552507155     
  0.97860000000000003        4.4729999999999999E-002  0.40439738753981114        1.7454808247132372     
   1.0040000000000000        4.2139999999999997E-002  0.40905463078771154        1.7393936916591990     
   1.0369999999999999        4.0250000000000001E-002  0.44716439650591688        1.7145575196706173     
   1.0700000000000001        3.9190000000000003E-002  0.50873110828378343        1.6778486634867729     
   1.1030000000000000        3.8530000000000002E-002  0.57480626808119761        1.6425667755002737     
   1.1359999999999999        3.8059999999999997E-002  0.62967278473880972        1.6158273639289387     
   1.1690000000000000        3.7719999999999997E-002  0.66748737368971023        1.5984394334415906     
   1.2020000000000000        3.7449999999999997E-002  0.68895165346610066        1.5887709117526181     
   1.2350000000000001        3.7229999999999999E-002  0.70252881266073730        1.5827761607479862     
   1.2680000000000000        3.7050000000000000E-002  0.70994866569694981        1.5795552828978272     
   1.3009999999999999        3.6900000000000002E-002  0.71446513439728088        1.5775736949124592     
   1.3340000000000001        3.6760000000000001E-002  0.71313461141869794        1.5781430747787715     
   1.3680000000000001        3.6639999999999999E-002  0.71559923979810891        1.5769977532555097     
   1.4010000000000000        3.6530000000000000E-002  0.71583433417306686        1.5768842446247140     
   1.4339999999999999        3.6420000000000001E-002  0.71814318489621676        1.5758191758436435     
   1.4670000000000001        3.6319999999999998E-002  0.71647036132088826        1.5765361648153380     
   1.5000000000000000        3.6229999999999998E-002  0.71479723662553563        1.5772556452160404     
 -0.50000000000000000        4.8800000000000003E-002  0.71428571428571441        1.6329931618554518     